 Entering Gaussian System, Link 0=g09
 Input=GF2.com
 Output=GF2.log
 Initial command:
 /home/case/qchem/g09revD01/g09/l1.exe "/u1/haichit/research/rna_project/resp_fit/GF2/Gau-10138.inp" -scrdir="/u1/haichit/research/rna_project/resp_fit/GF2/"
 Entering Link 1 = /home/case/qchem/g09revD01/g09/l1.exe PID=     10142.
  
 Copyright (c) 1988,1990,1992,1993,1995,1998,2003,2009,2013,
            Gaussian, Inc.  All Rights Reserved.
  
 This is part of the Gaussian(R) 09 program.  It is based on
 the Gaussian(R) 03 system (copyright 2003, Gaussian, Inc.),
 the Gaussian(R) 98 system (copyright 1998, Gaussian, Inc.),
 the Gaussian(R) 94 system (copyright 1995, Gaussian, Inc.),
 the Gaussian 92(TM) system (copyright 1992, Gaussian, Inc.),
 the Gaussian 90(TM) system (copyright 1990, Gaussian, Inc.),
 the Gaussian 88(TM) system (copyright 1988, Gaussian, Inc.),
 the Gaussian 86(TM) system (copyright 1986, Carnegie Mellon
 University), and the Gaussian 82(TM) system (copyright 1983,
 Carnegie Mellon University). Gaussian is a federally registered
 trademark of Gaussian, Inc.
  
 This software contains proprietary and confidential information,
 including trade secrets, belonging to Gaussian, Inc.
  
 This software is provided under written license and may be
 used, copied, transmitted, or stored only in accord with that
 written license.
  
 The following legend is applicable only to US Government
 contracts under FAR:
  
                    RESTRICTED RIGHTS LEGEND
  
 Use, reproduction and disclosure by the US Government is
 subject to restrictions as set forth in subparagraphs (a)
 and (c) of the Commercial Computer Software - Restricted
 Rights clause in FAR 52.227-19.
  
 Gaussian, Inc.
 340 Quinnipiac St., Bldg. 40, Wallingford CT 06492
  
  
 ---------------------------------------------------------------
 Warning -- This program may not be used in any manner that
 competes with the business of Gaussian, Inc. or will provide
 assistance to any competitor of Gaussian, Inc.  The licensee
 of this program is prohibited from giving any competitor of
 Gaussian, Inc. access to this program.  By using this program,
 the user acknowledges that Gaussian, Inc. is engaged in the
 business of creating and licensing software in the field of
 computational chemistry and represents and warrants to the
 licensee that it is not a competitor of Gaussian, Inc. and that
 it will not use this program in any manner prohibited above.
 ---------------------------------------------------------------
  

 Cite this work as:
 Gaussian 09, Revision D.01,
 M. J. Frisch, G. W. Trucks, H. B. Schlegel, G. E. Scuseria, 
 M. A. Robb, J. R. Cheeseman, G. Scalmani, V. Barone, B. Mennucci, 
 G. A. Petersson, H. Nakatsuji, M. Caricato, X. Li, H. P. Hratchian, 
 A. F. Izmaylov, J. Bloino, G. Zheng, J. L. Sonnenberg, M. Hada, 
 M. Ehara, K. Toyota, R. Fukuda, J. Hasegawa, M. Ishida, T. Nakajima, 
 Y. Honda, O. Kitao, H. Nakai, T. Vreven, J. A. Montgomery, Jr., 
 J. E. Peralta, F. Ogliaro, M. Bearpark, J. J. Heyd, E. Brothers, 
 K. N. Kudin, V. N. Staroverov, T. Keith, R. Kobayashi, J. Normand, 
 K. Raghavachari, A. Rendell, J. C. Burant, S. S. Iyengar, J. Tomasi, 
 M. Cossi, N. Rega, J. M. Millam, M. Klene, J. E. Knox, J. B. Cross, 
 V. Bakken, C. Adamo, J. Jaramillo, R. Gomperts, R. E. Stratmann, 
 O. Yazyev, A. J. Austin, R. Cammi, C. Pomelli, J. W. Ochterski, 
 R. L. Martin, K. Morokuma, V. G. Zakrzewski, G. A. Voth, 
 P. Salvador, J. J. Dannenberg, S. Dapprich, A. D. Daniels, 
 O. Farkas, J. B. Foresman, J. V. Ortiz, J. Cioslowski, 
 and D. J. Fox, Gaussian, Inc., Wallingford CT, 2013.
 
 ******************************************
 Gaussian 09:  AS64L-G09RevD.01 24-Apr-2013
                21-Jul-2015 
 ******************************************
 %chk=GF2_geo
 -------------------
 #P b3lyp/6-31G* Opt
 -------------------
 1/14=-1,18=20,19=15,26=3,38=1/1,3;
 2/9=110,12=2,17=6,18=5,40=1/2;
 3/5=1,6=6,7=1,11=2,16=1,25=1,30=1,71=1,74=-5/1,2,3;
 4//1;
 5/5=2,38=5/2;
 6/7=2,8=2,9=2,10=2,28=1/1;
 7//1,2,3,16;
 1/14=-1,18=20,19=15,26=3/3(2);
 2/9=110/2;
 99//99;
 2/9=110/2;
 3/5=1,6=6,7=1,11=2,16=1,25=1,30=1,71=1,74=-5/1,2,3;
 4/5=5,16=3,69=1/1;
 5/5=2,38=5/2;
 7//1,2,3,16;
 1/14=-1,18=20,19=15,26=3/3(-5);
 2/9=110/2;
 6/7=2,8=2,9=2,10=2,19=2,28=1/1;
 99/9=1/99;
 Leave Link    1 at Tue Jul 21 23:24:41 2015, MaxMem=           0 cpu:         0.1
 (Enter /home/case/qchem/g09revD01/g09/l101.exe)
 -----------
 AF2 geo opt
 -----------
 Symbolic Z-matrix:
 Charge =  0 Multiplicity = 1
 P                     2.894    -8.196     3.748 
 O                     2.963    -8.604     5.168 
 O                     1.681    -7.47      3.309 
 O                     4.232    -7.36      3.48 
 C                     5.48     -8.064     3.35 
 H                     5.429    -8.766     2.518 
 H                     5.679    -8.609     4.273 
 C                     6.614    -7.068     3.1 
 H                     7.569    -7.59      3.049 
 O                     6.436    -6.504     1.77 
 C                     6.837    -5.134     1.77 
 H                     7.552    -4.957     0.967 
 N                     5.671    -4.305     1.39 
 C                     4.338    -4.651     1.32 
 H                     4.03     -5.656     1.568 
 N                     3.55     -3.676     0.94 
 C                     4.42     -2.604     0.74 
 C                     4.148    -1.276     0.33 
 O                     3.067    -0.759     0.04 
 N                     5.325    -0.513     0.26 
 H                     5.241     0.446    -0.012 
 C                     6.597    -0.986     0.55 
 N                     7.579    -0.093     0.42 
 H                     7.491     0.869     0.126 
 H                     8.514    -0.419     0.618 
 N                     6.848    -2.225     0.94 
 C                     5.712    -2.974     1.01 
 C                     6.646    -5.859     4.02 
 H                     5.915    -5.354     4.651 
 C                     7.38     -4.83      3.17 
 H                     7.201    -3.929     3.756 
 F                     8.772    -5.106     3.14 
 O                     7.297    -6.145     5.25 
 H                     7.342    -5.41      5.865 
 
 Add atom      1 valence  3 ND=      2 dihedral       2      1      3      4
 NAtoms=     34 NQM=       34 NQMF=       0 NMMI=      0 NMMIF=      0
                NMic=       0 NMicF=      0.
                    Isotopes and Nuclear Properties:
 (Nuclear quadrupole moments (NQMom) in fm**2, nuclear magnetic moments (NMagM)
  in nuclear magnetons)

  Atom         1           2           3           4           5           6           7           8           9          10
 IAtWgt=          31          16          16          16          12           1           1          12           1          16
 AtmWgt=  30.9737634  15.9949146  15.9949146  15.9949146  12.0000000   1.0078250   1.0078250  12.0000000   1.0078250  15.9949146
 NucSpn=           1           0           0           0           0           1           1           0           1           0
 AtZEff=   0.0000000   0.0000000   0.0000000   0.0000000   0.0000000   0.0000000   0.0000000   0.0000000   0.0000000   0.0000000
 NQMom=    0.0000000   0.0000000   0.0000000   0.0000000   0.0000000   0.0000000   0.0000000   0.0000000   0.0000000   0.0000000
 NMagM=    1.1316000   0.0000000   0.0000000   0.0000000   0.0000000   2.7928460   2.7928460   0.0000000   2.7928460   0.0000000
 AtZNuc=  15.0000000   8.0000000   8.0000000   8.0000000   6.0000000   1.0000000   1.0000000   6.0000000   1.0000000   8.0000000

  Atom        11          12          13          14          15          16          17          18          19          20
 IAtWgt=          12           1          14          12           1          14          12          12          16          14
 AtmWgt=  12.0000000   1.0078250  14.0030740  12.0000000   1.0078250  14.0030740  12.0000000  12.0000000  15.9949146  14.0030740
 NucSpn=           0           1           2           0           1           2           0           0           0           2
 AtZEff=   0.0000000   0.0000000   0.0000000   0.0000000   0.0000000   0.0000000   0.0000000   0.0000000   0.0000000   0.0000000
 NQMom=    0.0000000   0.0000000   2.0440000   0.0000000   0.0000000   2.0440000   0.0000000   0.0000000   0.0000000   2.0440000
 NMagM=    0.0000000   2.7928460   0.4037610   0.0000000   2.7928460   0.4037610   0.0000000   0.0000000   0.0000000   0.4037610
 AtZNuc=   6.0000000   1.0000000   7.0000000   6.0000000   1.0000000   7.0000000   6.0000000   6.0000000   8.0000000   7.0000000

  Atom        21          22          23          24          25          26          27          28          29          30
 IAtWgt=           1          12          14           1           1          14          12          12           1          12
 AtmWgt=   1.0078250  12.0000000  14.0030740   1.0078250   1.0078250  14.0030740  12.0000000  12.0000000   1.0078250  12.0000000
 NucSpn=           1           0           2           1           1           2           0           0           1           0
 AtZEff=   0.0000000   0.0000000   0.0000000   0.0000000   0.0000000   0.0000000   0.0000000   0.0000000   0.0000000   0.0000000
 NQMom=    0.0000000   0.0000000   2.0440000   0.0000000   0.0000000   2.0440000   0.0000000   0.0000000   0.0000000   0.0000000
 NMagM=    2.7928460   0.0000000   0.4037610   2.7928460   2.7928460   0.4037610   0.0000000   0.0000000   2.7928460   0.0000000
 AtZNuc=   1.0000000   6.0000000   7.0000000   1.0000000   1.0000000   7.0000000   6.0000000   6.0000000   1.0000000   6.0000000

  Atom        31          32          33          34
 IAtWgt=           1          19          16           1
 AtmWgt=   1.0078250  18.9984033  15.9949146   1.0078250
 NucSpn=           1           1           0           1
 AtZEff=   0.0000000   0.0000000   0.0000000   0.0000000
 NQMom=    0.0000000   0.0000000   0.0000000   0.0000000
 NMagM=    2.7928460   2.6288670   0.0000000   2.7928460
 AtZNuc=   1.0000000   9.0000000   8.0000000   1.0000000
 Leave Link  101 at Tue Jul 21 23:24:41 2015, MaxMem=    33554432 cpu:         0.3
 (Enter /home/case/qchem/g09revD01/g09/l103.exe)

 GradGradGradGradGradGradGradGradGradGradGradGradGradGradGradGradGradGrad
 Berny optimization.
 Initialization pass.
                           ----------------------------
                           !    Initial Parameters    !
                           ! (Angstroms and Degrees)  !
 --------------------------                            --------------------------
 ! Name  Definition              Value          Derivative Info.                !
 --------------------------------------------------------------------------------
 ! R1    R(1,2)                  1.4791         estimate D2E/DX2                !
 ! R2    R(1,3)                  1.4803         estimate D2E/DX2                !
 ! R3    R(1,4)                  1.6003         estimate D2E/DX2                !
 ! R4    R(4,5)                  1.4388         estimate D2E/DX2                !
 ! R5    R(5,6)                  1.0898         estimate D2E/DX2                !
 ! R6    R(5,7)                  1.0902         estimate D2E/DX2                !
 ! R7    R(5,8)                  1.5299         estimate D2E/DX2                !
 ! R8    R(8,9)                  1.0895         estimate D2E/DX2                !
 ! R9    R(8,10)                 1.4556         estimate D2E/DX2                !
 ! R10   R(8,28)                 1.5196         estimate D2E/DX2                !
 ! R11   R(10,11)                1.4275         estimate D2E/DX2                !
 ! R12   R(11,12)                1.0897         estimate D2E/DX2                !
 ! R13   R(11,13)                1.4803         estimate D2E/DX2                !
 ! R14   R(11,30)                1.5321         estimate D2E/DX2                !
 ! R15   R(13,14)                1.379          estimate D2E/DX2                !
 ! R16   R(13,27)                1.3848         estimate D2E/DX2                !
 ! R17   R(14,15)                1.08           estimate D2E/DX2                !
 ! R18   R(14,16)                1.3099         estimate D2E/DX2                !
 ! R19   R(16,17)                1.395          estimate D2E/DX2                !
 ! R20   R(17,18)                1.4162         estimate D2E/DX2                !
 ! R21   R(17,27)                1.3708         estimate D2E/DX2                !
 ! R22   R(18,19)                1.2329         estimate D2E/DX2                !
 ! R23   R(18,20)                1.4044         estimate D2E/DX2                !
 ! R24   R(20,21)                1.0004         estimate D2E/DX2                !
 ! R25   R(20,22)                1.3877         estimate D2E/DX2                !
 ! R26   R(22,23)                1.3337         estimate D2E/DX2                !
 ! R27   R(22,26)                1.323          estimate D2E/DX2                !
 ! R28   R(23,24)                1.0098         estimate D2E/DX2                !
 ! R29   R(23,25)                1.0098         estimate D2E/DX2                !
 ! R30   R(26,27)                1.3625         estimate D2E/DX2                !
 ! R31   R(28,29)                1.0897         estimate D2E/DX2                !
 ! R32   R(28,30)                1.5232         estimate D2E/DX2                !
 ! R33   R(28,33)                1.4207         estimate D2E/DX2                !
 ! R34   R(30,31)                1.0896         estimate D2E/DX2                !
 ! R35   R(30,32)                1.4194         estimate D2E/DX2                !
 ! R36   R(33,34)                0.9594         estimate D2E/DX2                !
 ! A1    A(2,1,3)              117.2741         estimate D2E/DX2                !
 ! A2    A(2,1,4)              105.4193         estimate D2E/DX2                !
 ! A3    A(3,1,4)              112.2876         estimate D2E/DX2                !
 ! A4    A(1,4,5)              118.9964         estimate D2E/DX2                !
 ! A5    A(4,5,6)              110.0955         estimate D2E/DX2                !
 ! A6    A(4,5,7)              109.0531         estimate D2E/DX2                !
 ! A7    A(4,5,8)              109.8264         estimate D2E/DX2                !
 ! A8    A(6,5,7)              109.4438         estimate D2E/DX2                !
 ! A9    A(6,5,8)              109.2267         estimate D2E/DX2                !
 ! A10   A(7,5,8)              109.1781         estimate D2E/DX2                !
 ! A11   A(5,8,9)              110.209          estimate D2E/DX2                !
 ! A12   A(5,8,10)             108.1155         estimate D2E/DX2                !
 ! A13   A(5,8,28)             115.7632         estimate D2E/DX2                !
 ! A14   A(9,8,10)             104.4809         estimate D2E/DX2                !
 ! A15   A(9,8,28)             113.0205         estimate D2E/DX2                !
 ! A16   A(10,8,28)            104.3293         estimate D2E/DX2                !
 ! A17   A(8,10,11)            109.726          estimate D2E/DX2                !
 ! A18   A(10,11,12)           109.8904         estimate D2E/DX2                !
 ! A19   A(10,11,13)           108.4337         estimate D2E/DX2                !
 ! A20   A(10,11,30)           106.8577         estimate D2E/DX2                !
 ! A21   A(12,11,13)           103.6926         estimate D2E/DX2                !
 ! A22   A(12,11,30)           114.1173         estimate D2E/DX2                !
 ! A23   A(13,11,30)           113.7427         estimate D2E/DX2                !
 ! A24   A(11,13,14)           129.3426         estimate D2E/DX2                !
 ! A25   A(11,13,27)           125.8314         estimate D2E/DX2                !
 ! A26   A(14,13,27)           104.8245         estimate D2E/DX2                !
 ! A27   A(13,14,15)           119.8359         estimate D2E/DX2                !
 ! A28   A(13,14,16)           114.1717         estimate D2E/DX2                !
 ! A29   A(15,14,16)           125.9923         estimate D2E/DX2                !
 ! A30   A(14,16,17)           103.7917         estimate D2E/DX2                !
 ! A31   A(16,17,18)           129.9641         estimate D2E/DX2                !
 ! A32   A(16,17,27)           110.6186         estimate D2E/DX2                !
 ! A33   A(18,17,27)           119.4161         estimate D2E/DX2                !
 ! A34   A(17,18,19)           129.0302         estimate D2E/DX2                !
 ! A35   A(17,18,20)           111.2792         estimate D2E/DX2                !
 ! A36   A(19,18,20)           119.6886         estimate D2E/DX2                !
 ! A37   A(18,20,21)           117.6457         estimate D2E/DX2                !
 ! A38   A(18,20,22)           124.9305         estimate D2E/DX2                !
 ! A39   A(21,20,22)           117.4218         estimate D2E/DX2                !
 ! A40   A(20,22,23)           115.2339         estimate D2E/DX2                !
 ! A41   A(20,22,26)           123.6913         estimate D2E/DX2                !
 ! A42   A(23,22,26)           121.0726         estimate D2E/DX2                !
 ! A43   A(22,23,24)           127.0219         estimate D2E/DX2                !
 ! A44   A(22,23,25)           116.5189         estimate D2E/DX2                !
 ! A45   A(24,23,25)           116.4455         estimate D2E/DX2                !
 ! A46   A(22,26,27)           111.8265         estimate D2E/DX2                !
 ! A47   A(13,27,17)           106.5933         estimate D2E/DX2                !
 ! A48   A(13,27,26)           124.5522         estimate D2E/DX2                !
 ! A49   A(17,27,26)           128.8542         estimate D2E/DX2                !
 ! A50   A(8,28,29)            134.8407         estimate D2E/DX2                !
 ! A51   A(8,28,30)            102.1093         estimate D2E/DX2                !
 ! A52   A(8,28,33)            111.9403         estimate D2E/DX2                !
 ! A53   A(29,28,30)           109.4699         estimate D2E/DX2                !
 ! A54   A(29,28,33)            84.2238         estimate D2E/DX2                !
 ! A55   A(30,28,33)           113.4725         estimate D2E/DX2                !
 ! A56   A(11,30,28)           101.8352         estimate D2E/DX2                !
 ! A57   A(11,30,31)           126.6767         estimate D2E/DX2                !
 ! A58   A(11,30,32)           106.8387         estimate D2E/DX2                !
 ! A59   A(28,30,31)           100.3312         estimate D2E/DX2                !
 ! A60   A(28,30,32)           110.6717         estimate D2E/DX2                !
 ! A61   A(31,30,32)           109.4669         estimate D2E/DX2                !
 ! A62   A(28,33,34)           114.9756         estimate D2E/DX2                !
 ! D1    D(2,1,3,4)            122.3174         estimate D2E/DX2                !
 ! D2    D(2,1,4,5)             75.0454         estimate D2E/DX2                !
 ! D3    D(3,1,4,5)           -156.1412         estimate D2E/DX2                !
 ! D4    D(1,4,5,6)             59.7064         estimate D2E/DX2                !
 ! D5    D(1,4,5,7)            -60.3836         estimate D2E/DX2                !
 ! D6    D(1,4,5,8)           -179.985          estimate D2E/DX2                !
 ! D7    D(4,5,8,9)            177.2463         estimate D2E/DX2                !
 ! D8    D(4,5,8,10)           -69.1265         estimate D2E/DX2                !
 ! D9    D(4,5,8,28)            47.4271         estimate D2E/DX2                !
 ! D10   D(6,5,8,9)            -61.9197         estimate D2E/DX2                !
 ! D11   D(6,5,8,10)            51.7075         estimate D2E/DX2                !
 ! D12   D(6,5,8,28)           168.2612         estimate D2E/DX2                !
 ! D13   D(7,5,8,9)             57.7213         estimate D2E/DX2                !
 ! D14   D(7,5,8,10)           171.3485         estimate D2E/DX2                !
 ! D15   D(7,5,8,28)           -72.0979         estimate D2E/DX2                !
 ! D16   D(5,8,10,11)          144.4723         estimate D2E/DX2                !
 ! D17   D(9,8,10,11)          -98.1484         estimate D2E/DX2                !
 ! D18   D(28,8,10,11)          20.7221         estimate D2E/DX2                !
 ! D19   D(5,8,28,29)          -20.8831         estimate D2E/DX2                !
 ! D20   D(5,8,28,30)         -154.8408         estimate D2E/DX2                !
 ! D21   D(5,8,28,33)           83.4502         estimate D2E/DX2                !
 ! D22   D(9,8,28,29)         -149.333          estimate D2E/DX2                !
 ! D23   D(9,8,28,30)           76.7094         estimate D2E/DX2                !
 ! D24   D(9,8,28,33)          -44.9997         estimate D2E/DX2                !
 ! D25   D(10,8,28,29)          97.7776         estimate D2E/DX2                !
 ! D26   D(10,8,28,30)         -36.1801         estimate D2E/DX2                !
 ! D27   D(10,8,28,33)        -157.8891         estimate D2E/DX2                !
 ! D28   D(8,10,11,12)         127.6932         estimate D2E/DX2                !
 ! D29   D(8,10,11,13)        -119.6048         estimate D2E/DX2                !
 ! D30   D(8,10,11,30)           3.3831         estimate D2E/DX2                !
 ! D31   D(10,11,13,14)         13.6953         estimate D2E/DX2                !
 ! D32   D(10,11,13,27)       -165.8059         estimate D2E/DX2                !
 ! D33   D(12,11,13,14)        130.4595         estimate D2E/DX2                !
 ! D34   D(12,11,13,27)        -49.0417         estimate D2E/DX2                !
 ! D35   D(30,11,13,14)       -105.0262         estimate D2E/DX2                !
 ! D36   D(30,11,13,27)         75.4726         estimate D2E/DX2                !
 ! D37   D(10,11,30,28)        -25.816          estimate D2E/DX2                !
 ! D38   D(10,11,30,31)       -138.4304         estimate D2E/DX2                !
 ! D39   D(10,11,30,32)         90.3044         estimate D2E/DX2                !
 ! D40   D(12,11,30,28)       -147.4945         estimate D2E/DX2                !
 ! D41   D(12,11,30,31)         99.8911         estimate D2E/DX2                !
 ! D42   D(12,11,30,32)        -31.3741         estimate D2E/DX2                !
 ! D43   D(13,11,30,28)         93.8037         estimate D2E/DX2                !
 ! D44   D(13,11,30,31)        -18.8107         estimate D2E/DX2                !
 ! D45   D(13,11,30,32)       -150.0759         estimate D2E/DX2                !
 ! D46   D(11,13,14,15)          0.2104         estimate D2E/DX2                !
 ! D47   D(11,13,14,16)       -179.7086         estimate D2E/DX2                !
 ! D48   D(27,13,14,15)        179.7921         estimate D2E/DX2                !
 ! D49   D(27,13,14,16)         -0.1269         estimate D2E/DX2                !
 ! D50   D(11,13,27,17)        179.6841         estimate D2E/DX2                !
 ! D51   D(11,13,27,26)         -0.486          estimate D2E/DX2                !
 ! D52   D(14,13,27,17)          0.0832         estimate D2E/DX2                !
 ! D53   D(14,13,27,26)        179.9131         estimate D2E/DX2                !
 ! D54   D(13,14,16,17)          0.1116         estimate D2E/DX2                !
 ! D55   D(15,14,16,17)       -179.8015         estimate D2E/DX2                !
 ! D56   D(14,16,17,18)       -179.6441         estimate D2E/DX2                !
 ! D57   D(14,16,17,27)         -0.0529         estimate D2E/DX2                !
 ! D58   D(16,17,18,19)         -0.7534         estimate D2E/DX2                !
 ! D59   D(16,17,18,20)        179.778          estimate D2E/DX2                !
 ! D60   D(27,17,18,19)        179.6859         estimate D2E/DX2                !
 ! D61   D(27,17,18,20)          0.2173         estimate D2E/DX2                !
 ! D62   D(16,17,27,13)         -0.0213         estimate D2E/DX2                !
 ! D63   D(16,17,27,26)       -179.8414         estimate D2E/DX2                !
 ! D64   D(18,17,27,13)        179.619          estimate D2E/DX2                !
 ! D65   D(18,17,27,26)         -0.2011         estimate D2E/DX2                !
 ! D66   D(17,18,20,21)       -179.3751         estimate D2E/DX2                !
 ! D67   D(17,18,20,22)          0.0941         estimate D2E/DX2                !
 ! D68   D(19,18,20,21)          1.1            estimate D2E/DX2                !
 ! D69   D(19,18,20,22)       -179.4308         estimate D2E/DX2                !
 ! D70   D(18,20,22,23)       -179.9702         estimate D2E/DX2                !
 ! D71   D(18,20,22,26)         -0.4943         estimate D2E/DX2                !
 ! D72   D(21,20,22,23)         -0.4998         estimate D2E/DX2                !
 ! D73   D(21,20,22,26)        178.976          estimate D2E/DX2                !
 ! D74   D(20,22,23,24)         -0.8533         estimate D2E/DX2                !
 ! D75   D(20,22,23,25)       -179.4503         estimate D2E/DX2                !
 ! D76   D(26,22,23,24)        179.6559         estimate D2E/DX2                !
 ! D77   D(26,22,23,25)          1.0589         estimate D2E/DX2                !
 ! D78   D(20,22,26,27)          0.4868         estimate D2E/DX2                !
 ! D79   D(23,22,26,27)        179.9333         estimate D2E/DX2                !
 ! D80   D(22,26,27,13)       -179.9508         estimate D2E/DX2                !
 ! D81   D(22,26,27,17)         -0.1601         estimate D2E/DX2                !
 ! D82   D(8,28,30,11)          37.2647         estimate D2E/DX2                !
 ! D83   D(8,28,30,31)         168.4525         estimate D2E/DX2                !
 ! D84   D(8,28,30,32)         -76.0263         estimate D2E/DX2                !
 ! D85   D(29,28,30,11)       -109.9574         estimate D2E/DX2                !
 ! D86   D(29,28,30,31)         21.2305         estimate D2E/DX2                !
 ! D87   D(29,28,30,32)        136.7516         estimate D2E/DX2                !
 ! D88   D(33,28,30,11)        157.9142         estimate D2E/DX2                !
 ! D89   D(33,28,30,31)        -70.898          estimate D2E/DX2                !
 ! D90   D(33,28,30,32)         44.6232         estimate D2E/DX2                !
 ! D91   D(8,28,33,34)         179.988          estimate D2E/DX2                !
 ! D92   D(29,28,33,34)        -43.6821         estimate D2E/DX2                !
 ! D93   D(30,28,33,34)         65.06           estimate D2E/DX2                !
 --------------------------------------------------------------------------------
 Trust Radius=3.00D-01 FncErr=1.00D-07 GrdErr=1.00D-06
 Number of steps in this run=    201 maximum allowed number of steps=    204.
 GradGradGradGradGradGradGradGradGradGradGradGradGradGradGradGradGradGrad

 Leave Link  103 at Tue Jul 21 23:24:41 2015, MaxMem=    33554432 cpu:         0.0
 (Enter /home/case/qchem/g09revD01/g09/l202.exe)
                          Input orientation:                          
 ---------------------------------------------------------------------
 Center     Atomic      Atomic             Coordinates (Angstroms)
 Number     Number       Type             X           Y           Z
 ---------------------------------------------------------------------
      1         15           0        2.894000   -8.196000    3.748000
      2          8           0        2.963000   -8.604000    5.168000
      3          8           0        1.681000   -7.470000    3.309000
      4          8           0        4.232000   -7.360000    3.480000
      5          6           0        5.480000   -8.064000    3.350000
      6          1           0        5.429000   -8.766000    2.518000
      7          1           0        5.679000   -8.609000    4.273000
      8          6           0        6.614000   -7.068000    3.100000
      9          1           0        7.569000   -7.590000    3.049000
     10          8           0        6.436000   -6.504000    1.770000
     11          6           0        6.837000   -5.134000    1.770000
     12          1           0        7.552000   -4.957000    0.967000
     13          7           0        5.671000   -4.305000    1.390000
     14          6           0        4.338000   -4.651000    1.320000
     15          1           0        4.030000   -5.656000    1.568000
     16          7           0        3.550000   -3.676000    0.940000
     17          6           0        4.420000   -2.604000    0.740000
     18          6           0        4.148000   -1.276000    0.330000
     19          8           0        3.067000   -0.759000    0.040000
     20          7           0        5.325000   -0.513000    0.260000
     21          1           0        5.241000    0.446000   -0.012000
     22          6           0        6.597000   -0.986000    0.550000
     23          7           0        7.579000   -0.093000    0.420000
     24          1           0        7.491000    0.869000    0.126000
     25          1           0        8.514000   -0.419000    0.618000
     26          7           0        6.848000   -2.225000    0.940000
     27          6           0        5.712000   -2.974000    1.010000
     28          6           0        6.646000   -5.859000    4.020000
     29          1           0        5.915000   -5.354000    4.651000
     30          6           0        7.380000   -4.830000    3.170000
     31          1           0        7.201000   -3.929000    3.756000
     32          9           0        8.772000   -5.106000    3.140000
     33          8           0        7.297000   -6.145000    5.250000
     34          1           0        7.342000   -5.410000    5.865000
 ---------------------------------------------------------------------
                    Distance matrix (angstroms):
                    1          2          3          4          5
     1  P    0.000000
     2  O    1.479062   0.000000
     3  O    1.480259   2.526927   0.000000
     4  O    1.600301   2.450967   2.559090   0.000000
     5  C    2.619776   3.151510   3.845376   1.438756   0.000000
     6  H    2.874722   3.623520   4.043860   2.082088   1.089784
     7  H    2.863987   2.859669   4.267390   2.069459   1.090209
     8  C    3.940899   4.468302   4.953764   2.429730   1.529860
     9  H    4.765654   5.170454   5.894959   3.372570   2.163145
    10  O    4.395579   5.293216   5.090354   2.917953   2.417423
    11  C    5.369877   6.212502   5.865983   3.829517   3.594823
    12  H    6.318390   7.211652   6.802115   4.807492   4.430048
    13  N    5.330270   6.331504   5.442415   3.971378   4.243602
    14  C    4.532918   5.685414   4.354599   3.466341   4.132025
    15  H    3.534755   4.773803   3.440854   2.569078   3.328136
    16  N    5.361492   6.519642   4.847655   4.526431   5.365403
    17  C    6.530483   7.598028   6.146531   5.492038   6.143883
    18  C    7.819312   8.860590   7.302477   6.851614   7.547951
    19  O    8.311929   9.372898   7.592422   7.534190   8.375064
    20  N    8.780911   9.753553   8.424665   7.644898   8.160253
    21  H    9.712372  10.673527   9.293315   8.610794   9.153156
    22  C    8.713410   9.621112   8.591938   7.403108   7.693229
    23  N    9.933953  10.783695   9.876885   8.565938   8.748002
    24  H   10.790066  11.647415  10.650188   9.465032   9.707563
    25  H   10.092722  10.886245  10.180765   8.643150   8.666891
    26  N    7.692322   8.582590   7.734344   6.297879   6.463238
    27  C    6.535063   7.519499   6.461298   5.246741   5.606918
    28  C    4.428663   4.734704   5.268023   2.893440   2.582727
    29  H    4.244857   4.420870   4.919876   2.868408   3.037421
    30  C    5.638106   6.143693   6.282318   4.050544   3.755151
    31  H    6.062805   6.466066   6.573347   4.545646   4.497210
    32  F    6.668482   7.077660   7.476586   5.080130   4.430703
    33  O    5.084193   4.983669   6.087903   3.742105   3.254850
    34  H    5.659345   5.464713   6.543979   4.377536   4.103168
                    6          7          8          9         10
     6  H    0.000000
     7  H    1.779656   0.000000
     8  C    2.150849   2.150543   0.000000
     9  H    2.498907   2.471566   1.089546   0.000000
    10  O    2.586542   3.356945   1.455569   2.024580   0.000000
    11  C    3.966534   4.436395   2.357750   2.864193   1.427481
    12  H    4.628305   5.270187   3.144178   3.356740   2.069656
    13  N    4.607762   5.180364   3.383418   4.140762   2.359073
    14  C    4.422523   5.117055   3.767023   4.697502   2.835086
    15  H    3.540028   4.330870   3.319311   4.296305   2.559051
    16  N    5.650560   6.322659   5.055627   5.993299   4.124982
    17  C    6.492273   7.080056   5.505500   6.333078   4.509452
    18  C    7.907490   8.465465   6.877596   7.678724   5.885620
    19  O    8.708133   9.293187   7.858008   8.716917   6.880995
    20  N    8.556950   9.042937   7.259142   7.930825   6.277460
    21  H    9.554956  10.027268   8.248022   8.908793   7.273654
    22  C    8.109602   8.533087   6.594961   7.127594   5.653552
    23  N    9.178509   9.538232   7.534205   7.944605   6.650554
    24  H   10.139366  10.503020   8.521137   8.950123   7.627378
    25  H    9.099430   9.405974   7.347076   7.630598   6.532412
    26  N    6.876651   7.295951   5.308013   5.809557   4.378183
    27  C    5.991779   6.511642   4.684286   5.377121   3.682754
    28  C    3.491095   2.926021   1.519574   2.188865   2.350027
    29  H    4.053101   3.285362   2.414953   3.209644   3.145489
    30  C    4.441126   4.288456   2.366495   2.769109   2.377690
    31  H    5.298037   4.948351   3.260096   3.746758   3.340666
    32  F    4.995812   4.808466   2.916849   2.761475   3.047655
    33  O    4.221716   3.105439   2.437400   2.646962   3.602860
    34  H    5.111234   3.941273   3.305174   3.568443   4.334362
                   11         12         13         14         15
    11  C    0.000000
    12  H    1.089662   0.000000
    13  N    1.480269   2.035238   0.000000
    14  C    2.584722   3.247775   1.378951   0.000000
    15  H    2.862261   3.640644   2.133018   1.079997   0.000000
    16  N    3.690397   4.202106   2.257605   1.309950   2.131944
    17  C    3.647422   3.923973   2.209276   2.129163   3.186281
    18  C    4.918179   5.053983   3.552178   3.522332   4.553127
    19  O    6.028800   6.212709   4.601894   4.289698   5.219460
    20  N    5.091158   5.020808   3.971886   4.384155   5.462448
    21  H    6.071173   5.957480   4.972173   5.345002   6.418514
    22  C    4.330347   4.105454   3.546666   4.373580   5.425377
    23  N    5.271124   4.894735   4.724649   5.664755   6.697781
    24  H    6.258311   5.886703   5.628532   6.468187   7.525524
    25  H    5.135237   4.651955   4.876436   5.986786   6.959520
    26  N    3.025112   2.821377   2.431919   3.511407   4.484113
    27  C    2.551240   2.705501   1.384790   2.190047   3.214594
    28  C    2.371625   3.309871   3.206625   3.751817   3.591235
    29  H    3.032927   4.050831   3.434248   3.751893   3.626199
    30  C    1.532079   2.213351   2.522837   3.564871   3.804100
    31  H    2.351322   2.993076   2.842575   3.827813   4.221980
    32  F    2.371057   2.496504   3.649699   4.814539   5.025957
    33  O    3.652961   4.452017   4.574831   5.141266   4.946669
    34  H    4.135242   4.923384   4.902947   5.500647   5.430844
                   16         17         18         19         20
    16  N    0.000000
    17  C    1.395021   0.000000
    18  C    2.547490   1.416216   0.000000
    19  O    3.090660   2.392621   1.232863   0.000000
    20  N    3.690202   2.328456   1.404421   2.281990   0.000000
    21  H    4.555949   3.246852   2.068066   2.486163   1.000360
    22  C    4.083186   2.719072   2.475904   3.573868   1.387737
    23  N    5.416745   4.048062   3.630337   4.576691   2.298372
    24  H    6.070511   4.676512   3.977221   4.714823   2.572826
    25  H    5.945841   4.642192   4.458626   5.488123   3.210408
    26  N    3.603083   2.465527   2.926209   4.153928   2.390162
    27  C    2.274192   1.370790   2.406595   3.583734   2.601690
    28  C    4.882326   5.129181   6.392182   7.393216   6.668010
    29  H    4.709610   5.009336   6.198662   7.105382   6.562337
    30  C    4.579685   4.429625   5.580532   6.706110   5.597108
    31  H    4.617756   4.311130   5.300631   6.399024   5.235499
    32  F    5.844158   5.564163   6.629206   7.813670   6.424318
    33  O    6.221902   6.415287   7.604588   8.604998   7.778709
    34  H    6.453034   6.532790   7.611033   8.592907   7.711350
                   21         22         23         24         25
    21  H    0.000000
    22  C    2.050659   0.000000
    23  N    2.437907   1.333669   0.000000
    24  H    2.293572   2.102388   1.009764   0.000000
    25  H    3.443494   2.000250   1.009804   1.716839   0.000000
    26  N    3.259293   1.322960   2.313047   3.263262   2.478079
    27  C    3.600378   2.224178   3.483382   4.326077   3.812203
    28  C    7.614727   5.982427   6.861286   7.819415   6.682561
    29  H    7.472472   6.030153   6.953300   7.853988   6.882886
    30  C    6.522011   4.717396   5.480992   6.461955   5.220688
    31  H    6.097545   4.393689   5.097713   6.023438   4.887854
    32  F    7.295736   5.330396   5.826819   6.813647   5.328697
    33  O    8.680844   7.013935   7.748234   8.688453   7.464823
    34  H    8.558392   6.955288   7.614111   8.507888   7.335849
                   26         27         28         29         30
    26  N    0.000000
    27  C    1.362497   0.000000
    28  C    4.767930   4.272667   0.000000
    29  H    4.942940   4.354594   1.089746   0.000000
    30  C    3.470151   3.300388   1.523186   2.148060   0.000000
    31  H    3.310299   3.266445   2.025493   2.117887   1.089605
    32  F    4.103893   4.294872   2.421009   3.241462   1.419415
    33  O    5.843295   5.526759   1.420738   1.701295   2.462217
    34  H    5.885906   5.671157   2.022385   1.874369   2.756967
                   31         32         33         34
    31  H    0.000000
    32  F    2.057383   0.000000
    33  O    2.674305   2.776193   0.000000
    34  H    2.580915   3.092401   0.959414   0.000000
 Stoichiometry    C10H11FN5O6P
 Framework group  C1[X(C10H11FN5O6P)]
 Deg. of freedom    96
 Full point group                 C1      NOp   1
 Largest Abelian subgroup         C1      NOp   1
 Largest concise Abelian subgroup C1      NOp   1
                         Standard orientation:                         
 ---------------------------------------------------------------------
 Center     Atomic      Atomic             Coordinates (Angstroms)
 Number     Number       Type             X           Y           Z
 ---------------------------------------------------------------------
      1         15           0        4.129985   -1.674382   -0.000798
      2          8           0        5.117621   -1.207754    0.996427
      3          8           0        3.547635   -3.020423    0.199724
      4          8           0        3.011256   -0.531553   -0.058664
      5          6           0        3.307648    0.700742   -0.739561
      6          1           0        3.546180    0.503212   -1.784412
      7          1           0        4.160575    1.177998   -0.256552
      8          6           0        2.100078    1.637200   -0.666820
      9          1           0        2.334539    2.591044   -1.138329
     10          8           0        1.040603    1.074401   -1.491108
     11          6           0       -0.227571    1.335073   -0.889872
     12          1           0       -0.893002    1.801821   -1.615621
     13          7           0       -0.881759    0.039929   -0.596895
     14          6           0       -0.342754   -1.229277   -0.587170
     15          1           0        0.703591   -1.370435   -0.814392
     16          7           0       -1.200323   -2.173964   -0.290335
     17          6           0       -2.397160   -1.485765   -0.090219
     18          6           0       -3.679177   -1.973769    0.261848
     19          8           0       -4.039350   -3.135575    0.462932
     20          7           0       -4.611517   -0.928617    0.365760
     21          1           0       -5.549199   -1.166670    0.620328
     22          6           0       -4.328326    0.412994    0.151995
     23          7           0       -5.360966    1.243246    0.303683
     24          1           0       -6.310476    0.995447    0.541696
     25          1           0       -5.178509    2.223555    0.144283
     26          7           0       -3.128249    0.867538   -0.169608
     27          6           0       -2.216379   -0.139434   -0.274003
     28          6           0        1.466475    1.792574    0.705591
     29          1           0        1.465952    1.204107    1.622790
     30          6           0        0.037798    2.187689    0.355073
     31          1           0       -0.438591    2.082787    1.329387
     32          9           0       -0.020153    3.544999   -0.056136
     33          8           0        2.143253    2.759638    1.496323
     34          1           0        1.778289    2.892916    2.373542
 ---------------------------------------------------------------------
 Rotational constants (GHZ):      0.3754092      0.1429087      0.1105200
 Leave Link  202 at Tue Jul 21 23:24:41 2015, MaxMem=    33554432 cpu:         0.0
 (Enter /home/case/qchem/g09revD01/g09/l301.exe)
 Standard basis: 6-31G(d) (6D, 7F)
 Ernie: Thresh=  0.10000D-02 Tol=  0.10000D-05 Strict=F.
 There are   371 symmetry adapted cartesian basis functions of A   symmetry.
 There are   371 symmetry adapted basis functions of A   symmetry.
   371 basis functions,   712 primitive gaussians,   371 cartesian basis functions
    89 alpha electrons       89 beta electrons
       nuclear repulsion energy      2185.4352266387 Hartrees.
 IExCor=  402 DFT=T Ex+Corr=B3LYP ExCW=0 ScaHFX=  0.200000
 ScaDFX=  0.800000  0.720000  1.000000  0.810000 ScalE2=  1.000000  1.000000
 IRadAn=      0 IRanWt=     -1 IRanGd=            0 ICorTp=0 IEmpDi=  4
 NAtoms=   34 NActive=   34 NUniq=   34 SFac= 1.00D+00 NAtFMM=   60 NAOKFM=F Big=F
 Integral buffers will be    131072 words long.
 Raffenetti 2 integral format.
 Two-electron integral symmetry is turned on.
 Leave Link  301 at Tue Jul 21 23:24:41 2015, MaxMem=    33554432 cpu:         0.1
 (Enter /home/case/qchem/g09revD01/g09/l302.exe)
 NPDir=0 NMtPBC=     1 NCelOv=     1 NCel=       1 NClECP=     1 NCelD=      1
         NCelK=      1 NCelE2=     1 NClLst=     1 CellRange=     0.0.
 One-electron integrals computed using PRISM.
 NBasis=   371 RedAO= T EigKep=  7.37D-04  NBF=   371
 NBsUse=   371 1.00D-06 EigRej= -1.00D+00 NBFU=   371
 Precomputing XC quadrature grid using
 IXCGrd= 4 IRadAn=           0 IRanWt=          -1 IRanGd=           0 AccXCQ= 0.00D+00.
 Generated NRdTot=       0 NPtTot=           0 NUsed=           0 NTot=          32
 NSgBfM=   366   366   366   366   366 MxSgAt=    34 MxSgA2=    34.
 Leave Link  302 at Tue Jul 21 23:24:43 2015, MaxMem=    33554432 cpu:         2.0
 (Enter /home/case/qchem/g09revD01/g09/l303.exe)
 DipDrv:  MaxL=1.
 Leave Link  303 at Tue Jul 21 23:24:43 2015, MaxMem=    33554432 cpu:         0.1
 (Enter /home/case/qchem/g09revD01/g09/l401.exe)
 ExpMin= 9.98D-02 ExpMax= 1.94D+04 ExpMxC= 2.91D+03 IAcc=2 IRadAn=         4 AccDes= 0.00D+00
 Harris functional with IExCor=  402 and IRadAn=       4 diagonalized for initial guess.
 HarFok:  IExCor=  402 AccDes= 0.00D+00 IRadAn=         4 IDoV= 1 UseB2=F ITyADJ=14
 ICtDFT=  3500011 ScaDFX=  1.000000  1.000000  1.000000  1.000000
 FoFCou: FMM=F IPFlag=           0 FMFlag=      100000 FMFlg1=           0
         NFxFlg=           0 DoJE=T BraDBF=F KetDBF=T FulRan=T
         wScrn=  0.000000 ICntrl=     500 IOpCl=  0 I1Cent=   200000004 NGrid=           0
         NMat0=    1 NMatS0=      1 NMatT0=    0 NMatD0=    1 NMtDS0=    0 NMtDT0=    0
 Petite list used in FoFCou.
 Harris En= -1553.89453136150    
 JPrj=0 DoOrth=F DoCkMO=F.
 Leave Link  401 at Tue Jul 21 23:24:58 2015, MaxMem=    33554432 cpu:        14.7
 (Enter /home/case/qchem/g09revD01/g09/l502.exe)
 Closed shell SCF:
 Using DIIS extrapolation, IDIIS=  1040.
 Integral symmetry usage will be decided dynamically.
 IVT=      436479 IEndB=      436479 NGot=    33554432 MDV=    33272606
 LenX=    33272606 LenY=    33134524
 Requested convergence on RMS density matrix=1.00D-08 within 128 cycles.
 Requested convergence on MAX density matrix=1.00D-06.
 Requested convergence on             energy=1.00D-06.
 No special actions if energy rises.
 Fock matrices will be formed incrementally for  20 cycles.
 Integral accuracy reduced to 1.0D-05 until final iterations.

 Cycle   1  Pass 0  IDiag  1:
 FoFJK:  IHMeth= 1 ICntrl=       0 DoSepK=F KAlg= 0 I1Cent=   0 FoldK=F
 IRaf= 710000000 NMat=   1 IRICut=       1 DoRegI=T DoRafI=F ISym2E= 0.
 FoFCou: FMM=F IPFlag=           0 FMFlag=      100000 FMFlg1=           0
         NFxFlg=           0 DoJE=F BraDBF=F KetDBF=F FulRan=T
         wScrn=  0.000000 ICntrl=       0 IOpCl=  0 I1Cent=           0 NGrid=           0
         NMat0=    1 NMatS0=      1 NMatT0=    0 NMatD0=    1 NMtDS0=    0 NMtDT0=    0
 Symmetry not used in FoFCou.
 E= -1553.18770653180    
 DIIS: error= 3.12D-02 at cycle   1 NSaved=   1.
 NSaved= 1 IEnMin= 1 EnMin= -1553.18770653180     IErMin= 1 ErrMin= 3.12D-02
 ErrMax= 3.12D-02  0.00D+00 EMaxC= 1.00D-01 BMatC= 8.36D-01 BMatP= 8.36D-01
 IDIUse=3 WtCom= 6.88D-01 WtEn= 3.12D-01
 Coeff-Com:  0.100D+01
 Coeff-En:   0.100D+01
 Coeff:      0.100D+01
 Gap=    -0.116 Goal=   None    Shift=    0.000
 GapD=   -0.116 DampG=0.250 DampE=0.500 DampFc=0.2500 IDamp=-1.
 Damping current iteration by 2.50D-01
 RMSDP=8.16D-03 MaxDP=6.86D-01              OVMax= 7.39D-01

 Cycle   2  Pass 0  IDiag  1:
 RMSU=  2.03D-03    CP:  9.93D-01
 E= -1553.34178797123     Delta-E=       -0.154081439431 Rises=F Damp=T
 DIIS: error= 1.10D-02 at cycle   2 NSaved=   2.
 NSaved= 2 IEnMin= 2 EnMin= -1553.34178797123     IErMin= 2 ErrMin= 1.10D-02
 ErrMax= 1.10D-02  0.00D+00 EMaxC= 1.00D-01 BMatC= 1.45D-01 BMatP= 8.36D-01
 IDIUse=3 WtCom= 8.90D-01 WtEn= 1.10D-01
 Coeff-Com: -0.257D+00 0.126D+01
 Coeff-En:   0.287D+00 0.713D+00
 Coeff:     -0.197D+00 0.120D+01
 Gap=    -0.135 Goal=   None    Shift=    0.000
 RMSDP=2.83D-03 MaxDP=1.53D-01 DE=-1.54D-01 OVMax= 3.89D-01

 Cycle   3  Pass 0  IDiag  1:
 RMSU=  2.77D-03    CP:  9.83D-01  7.29D-01
 E= -1553.41637948592     Delta-E=       -0.074591514695 Rises=F Damp=F
 DIIS: error= 2.87D-02 at cycle   3 NSaved=   3.
 NSaved= 3 IEnMin= 3 EnMin= -1553.41637948592     IErMin= 2 ErrMin= 1.10D-02
 ErrMax= 2.87D-02  0.00D+00 EMaxC= 1.00D-01 BMatC= 4.84D-01 BMatP= 1.45D-01
 IDIUse=2 WtCom= 0.00D+00 WtEn= 1.00D+00
 EnCoef did     4 forward-backward iterations
 Coeff-En:   0.244D-01 0.428D+00 0.548D+00
 Coeff:      0.244D-01 0.428D+00 0.548D+00
 Gap=     0.299 Goal=   None    Shift=    0.000
 RMSDP=5.54D-03 MaxDP=5.26D-01 DE=-7.46D-02 OVMax= 9.97D-01

 Cycle   4  Pass 0  IDiag  1:
 RMSU=  2.62D-03    CP:  9.77D-01  2.35D+00 -3.05D-01
 E= -1551.28807876456     Delta-E=        2.128300721362 Rises=F Damp=F
 DIIS: error= 5.72D-02 at cycle   4 NSaved=   4.
 NSaved= 4 IEnMin= 3 EnMin= -1553.41637948592     IErMin= 2 ErrMin= 1.10D-02
 ErrMax= 5.72D-02  0.00D+00 EMaxC= 1.00D-01 BMatC= 1.41D+00 BMatP= 1.45D-01
 IDIUse=2 WtCom= 0.00D+00 WtEn= 1.00D+00
 EnCoef did     1 forward-backward iterations
 Coeff-En:   0.114D+00 0.000D+00 0.666D+00 0.221D+00
 Coeff:      0.114D+00 0.000D+00 0.666D+00 0.221D+00
 Gap=     0.035 Goal=   None    Shift=    0.000
 RMSDP=4.91D-03 MaxDP=5.34D-01 DE= 2.13D+00 OVMax= 9.97D-01

 Cycle   5  Pass 0  IDiag  1:
 RMSU=  2.10D-03    CP:  9.90D-01  7.26D-01  3.11D-01  8.00D-02
 E= -1553.80937633065     Delta-E=       -2.521297566092 Rises=F Damp=F
 DIIS: error= 8.86D-03 at cycle   5 NSaved=   5.
 NSaved= 5 IEnMin= 5 EnMin= -1553.80937633065     IErMin= 5 ErrMin= 8.86D-03
 ErrMax= 8.86D-03  0.00D+00 EMaxC= 1.00D-01 BMatC= 8.61D-02 BMatP= 1.45D-01
 IDIUse=3 WtCom= 9.11D-01 WtEn= 8.86D-02
 Coeff-Com: -0.950D-01 0.372D+00 0.283D+00 0.154D-01 0.426D+00
 Coeff-En:   0.000D+00 0.000D+00 0.138D+00 0.000D+00 0.862D+00
 Coeff:     -0.866D-01 0.339D+00 0.270D+00 0.140D-01 0.464D+00
 Gap=     0.114 Goal=   None    Shift=    0.000
 RMSDP=1.28D-03 MaxDP=6.22D-02 DE=-2.52D+00 OVMax= 1.37D-01

 Cycle   6  Pass 0  IDiag  1:
 RMSU=  7.50D-04    CP:  9.87D-01  6.93D-01  5.02D-01  1.59D-02  5.84D-01
 E= -1553.86449935320     Delta-E=       -0.055123022552 Rises=F Damp=F
 DIIS: error= 6.33D-03 at cycle   6 NSaved=   6.
 NSaved= 6 IEnMin= 6 EnMin= -1553.86449935320     IErMin= 6 ErrMin= 6.33D-03
 ErrMax= 6.33D-03  0.00D+00 EMaxC= 1.00D-01 BMatC= 2.56D-02 BMatP= 8.61D-02
 IDIUse=3 WtCom= 9.37D-01 WtEn= 6.33D-02
 Coeff-Com: -0.970D-01 0.196D+00 0.557D-01-0.753D-02 0.293D+00 0.560D+00
 Coeff-En:   0.000D+00 0.000D+00 0.000D+00 0.000D+00 0.252D+00 0.748D+00
 Coeff:     -0.909D-01 0.184D+00 0.522D-01-0.705D-02 0.290D+00 0.572D+00
 Gap=     0.040 Goal=   None    Shift=    0.000
 RMSDP=4.87D-04 MaxDP=2.12D-02 DE=-5.51D-02 OVMax= 5.29D-02

 Cycle   7  Pass 0  IDiag  1:
 RMSU=  3.09D-04    CP:  9.88D-01  7.45D-01  4.40D-01  1.35D-02  7.17D-01
                    CP:  7.99D-01
 E= -1553.88547269216     Delta-E=       -0.020973338957 Rises=F Damp=F
 DIIS: error= 2.34D-03 at cycle   7 NSaved=   7.
 NSaved= 7 IEnMin= 7 EnMin= -1553.88547269216     IErMin= 7 ErrMin= 2.34D-03
 ErrMax= 2.34D-03  0.00D+00 EMaxC= 1.00D-01 BMatC= 3.29D-03 BMatP= 2.56D-02
 IDIUse=3 WtCom= 9.77D-01 WtEn= 2.34D-02
 Coeff-Com: -0.504D-01 0.854D-01-0.181D-01-0.154D-02 0.100D+00 0.374D+00
 Coeff-Com:  0.510D+00
 Coeff-En:   0.000D+00 0.000D+00 0.000D+00 0.000D+00 0.000D+00 0.000D+00
 Coeff-En:   0.100D+01
 Coeff:     -0.492D-01 0.834D-01-0.177D-01-0.151D-02 0.981D-01 0.365D+00
 Coeff:      0.522D+00
 Gap=     0.044 Goal=   None    Shift=    0.000
 RMSDP=1.72D-04 MaxDP=1.06D-02 DE=-2.10D-02 OVMax= 1.71D-02

 Cycle   8  Pass 0  IDiag  1:
 RMSU=  1.13D-04    CP:  9.88D-01  7.31D-01  4.28D-01  1.69D-02  7.34D-01
                    CP:  8.72D-01  6.71D-01
 E= -1553.88783931137     Delta-E=       -0.002366619212 Rises=F Damp=F
 DIIS: error= 1.39D-03 at cycle   8 NSaved=   8.
 NSaved= 8 IEnMin= 8 EnMin= -1553.88783931137     IErMin= 8 ErrMin= 1.39D-03
 ErrMax= 1.39D-03  0.00D+00 EMaxC= 1.00D-01 BMatC= 6.29D-04 BMatP= 3.29D-03
 IDIUse=3 WtCom= 9.86D-01 WtEn= 1.39D-02
 Coeff-Com: -0.269D-01 0.414D-01-0.224D-01 0.824D-03 0.317D-01 0.191D+00
 Coeff-Com:  0.363D+00 0.420D+00
 Coeff-En:   0.000D+00 0.000D+00 0.000D+00 0.000D+00 0.000D+00 0.000D+00
 Coeff-En:   0.795D-01 0.920D+00
 Coeff:     -0.265D-01 0.409D-01-0.221D-01 0.813D-03 0.313D-01 0.189D+00
 Coeff:      0.359D+00 0.427D+00
 Gap=     0.040 Goal=   None    Shift=    0.000
 RMSDP=7.61D-05 MaxDP=5.94D-03 DE=-2.37D-03 OVMax= 1.31D-02

 Cycle   9  Pass 0  IDiag  1:
 RMSU=  5.41D-05    CP:  9.88D-01  7.33D-01  4.24D-01  1.56D-02  7.36D-01
                    CP:  8.96D-01  7.49D-01  6.26D-01
 E= -1553.88827177484     Delta-E=       -0.000432463472 Rises=F Damp=F
 DIIS: error= 7.54D-04 at cycle   9 NSaved=   9.
 NSaved= 9 IEnMin= 9 EnMin= -1553.88827177484     IErMin= 9 ErrMin= 7.54D-04
 ErrMax= 7.54D-04  0.00D+00 EMaxC= 1.00D-01 BMatC= 1.95D-04 BMatP= 6.29D-04
 IDIUse=3 WtCom= 9.92D-01 WtEn= 7.54D-03
 Coeff-Com: -0.952D-02 0.131D-01-0.152D-01 0.178D-02-0.937D-02 0.357D-01
 Coeff-Com:  0.122D+00 0.342D+00 0.520D+00
 Coeff-En:   0.000D+00 0.000D+00 0.000D+00 0.000D+00 0.000D+00 0.000D+00
 Coeff-En:   0.000D+00 0.174D+00 0.826D+00
 Coeff:     -0.945D-02 0.130D-01-0.151D-01 0.176D-02-0.930D-02 0.355D-01
 Coeff:      0.121D+00 0.341D+00 0.522D+00
 Gap=     0.037 Goal=   None    Shift=    0.000
 RMSDP=3.85D-05 MaxDP=2.50D-03 DE=-4.32D-04 OVMax= 5.07D-03

 Cycle  10  Pass 0  IDiag  1:
 RMSU=  2.48D-05    CP:  9.88D-01  7.36D-01  4.22D-01  1.50D-02  7.38D-01
                    CP:  9.14D-01  7.80D-01  7.56D-01  6.84D-01
 E= -1553.88841637465     Delta-E=       -0.000144599805 Rises=F Damp=F
 DIIS: error= 3.66D-04 at cycle  10 NSaved=  10.
 NSaved=10 IEnMin=10 EnMin= -1553.88841637465     IErMin=10 ErrMin= 3.66D-04
 ErrMax= 3.66D-04  0.00D+00 EMaxC= 1.00D-01 BMatC= 4.39D-05 BMatP= 1.95D-04
 IDIUse=3 WtCom= 9.96D-01 WtEn= 3.66D-03
 Coeff-Com: -0.408D-02 0.510D-02-0.769D-02 0.130D-02-0.976D-02-0.576D-02
 Coeff-Com:  0.791D-02 0.131D+00 0.331D+00 0.552D+00
 Coeff-En:   0.000D+00 0.000D+00 0.000D+00 0.000D+00 0.000D+00 0.000D+00
 Coeff-En:   0.000D+00 0.000D+00 0.000D+00 0.100D+01
 Coeff:     -0.406D-02 0.508D-02-0.766D-02 0.129D-02-0.972D-02-0.574D-02
 Coeff:      0.788D-02 0.130D+00 0.329D+00 0.553D+00
 Gap=     0.037 Goal=   None    Shift=    0.000
 RMSDP=1.75D-05 MaxDP=1.03D-03 DE=-1.45D-04 OVMax= 2.01D-03

 Cycle  11  Pass 0  IDiag  1:
 RMSU=  1.22D-05    CP:  9.88D-01  7.37D-01  4.20D-01  1.49D-02  7.41D-01
                    CP:  9.18D-01  7.89D-01  7.97D-01  8.15D-01  8.27D-01
 E= -1553.88844704557     Delta-E=       -0.000030670921 Rises=F Damp=F
 DIIS: error= 1.81D-04 at cycle  11 NSaved=  11.
 NSaved=11 IEnMin=11 EnMin= -1553.88844704557     IErMin=11 ErrMin= 1.81D-04
 ErrMax= 1.81D-04  0.00D+00 EMaxC= 1.00D-01 BMatC= 9.93D-06 BMatP= 4.39D-05
 IDIUse=3 WtCom= 9.98D-01 WtEn= 1.81D-03
 Coeff-Com: -0.145D-02 0.203D-02-0.681D-03 0.297D-03-0.935D-03-0.127D-01
 Coeff-Com: -0.404D-01-0.311D-01 0.425D-01 0.351D+00 0.692D+00
 Coeff-En:   0.000D+00 0.000D+00 0.000D+00 0.000D+00 0.000D+00 0.000D+00
 Coeff-En:   0.000D+00 0.000D+00 0.000D+00 0.000D+00 0.100D+01
 Coeff:     -0.145D-02 0.202D-02-0.679D-03 0.297D-03-0.933D-03-0.127D-01
 Coeff:     -0.403D-01-0.311D-01 0.424D-01 0.350D+00 0.692D+00
 Gap=     0.036 Goal=   None    Shift=    0.000
 RMSDP=1.22D-05 MaxDP=4.31D-04 DE=-3.07D-05 OVMax= 2.27D-03

 Cycle  12  Pass 0  IDiag  1:
 RMSU=  6.28D-06    CP:  9.88D-01  7.38D-01  4.19D-01  1.51D-02  7.43D-01
                    CP:  9.22D-01  7.92D-01  8.10D-01  8.71D-01  1.08D+00
                    CP:  9.27D-01
 E= -1553.88845800907     Delta-E=       -0.000010963498 Rises=F Damp=F
 DIIS: error= 4.53D-05 at cycle  12 NSaved=  12.
 NSaved=12 IEnMin=12 EnMin= -1553.88845800907     IErMin=12 ErrMin= 4.53D-05
 ErrMax= 4.53D-05  0.00D+00 EMaxC= 1.00D-01 BMatC= 9.65D-07 BMatP= 9.93D-06
 IDIUse=1 WtCom= 1.00D+00 WtEn= 0.00D+00
 Coeff-Com: -0.380D-03 0.498D-03 0.163D-03 0.468D-04 0.107D-02-0.486D-02
 Coeff-Com: -0.223D-01-0.334D-01-0.246D-01 0.100D+00 0.368D+00 0.615D+00
 Coeff:     -0.380D-03 0.498D-03 0.163D-03 0.468D-04 0.107D-02-0.486D-02
 Coeff:     -0.223D-01-0.334D-01-0.246D-01 0.100D+00 0.368D+00 0.615D+00
 Gap=     0.036 Goal=   None    Shift=    0.000
 RMSDP=4.74D-06 MaxDP=2.05D-04 DE=-1.10D-05 OVMax= 9.34D-04

 Initial convergence to 1.0D-05 achieved.  Increase integral accuracy.
 Cycle  13  Pass 1  IDiag  1:
 E= -1553.88842776067     Delta-E=        0.000030248400 Rises=F Damp=F
 DIIS: error= 5.43D-05 at cycle   1 NSaved=   1.
 NSaved= 1 IEnMin= 1 EnMin= -1553.88842776067     IErMin= 1 ErrMin= 5.43D-05
 ErrMax= 5.43D-05  0.00D+00 EMaxC= 1.00D-01 BMatC= 6.94D-07 BMatP= 6.94D-07
 IDIUse=1 WtCom= 1.00D+00 WtEn= 0.00D+00
 Coeff-Com:  0.100D+01
 Coeff:      0.100D+01
 Gap=     0.036 Goal=   None    Shift=    0.000
 RMSDP=4.74D-06 MaxDP=2.05D-04 DE= 3.02D-05 OVMax= 5.93D-04

 Cycle  14  Pass 1  IDiag  1:
 RMSU=  2.17D-05    CP:  1.00D+00
 E= -1553.88842833043     Delta-E=       -0.000000569759 Rises=F Damp=F
 DIIS: error= 1.13D-05 at cycle   2 NSaved=   2.
 NSaved= 2 IEnMin= 2 EnMin= -1553.88842833043     IErMin= 2 ErrMin= 1.13D-05
 ErrMax= 1.13D-05  0.00D+00 EMaxC= 1.00D-01 BMatC= 1.45D-07 BMatP= 6.94D-07
 IDIUse=1 WtCom= 1.00D+00 WtEn= 0.00D+00
 Coeff-Com:  0.215D+00 0.785D+00
 Coeff:      0.215D+00 0.785D+00
 Gap=     0.036 Goal=   None    Shift=    0.000
 RMSDP=2.70D-06 MaxDP=1.37D-04 DE=-5.70D-07 OVMax= 3.85D-04

 Cycle  15  Pass 1  IDiag  1:
 RMSU=  2.69D-06    CP:  1.00D+00  1.00D+00
 E= -1553.88842820148     Delta-E=        0.000000128951 Rises=F Damp=F
 DIIS: error= 1.72D-05 at cycle   3 NSaved=   3.
 NSaved= 3 IEnMin= 2 EnMin= -1553.88842833043     IErMin= 2 ErrMin= 1.13D-05
 ErrMax= 1.72D-05  0.00D+00 EMaxC= 1.00D-01 BMatC= 2.91D-07 BMatP= 1.45D-07
 IDIUse=1 WtCom= 1.00D+00 WtEn= 0.00D+00
 Coeff-Com: -0.696D-03 0.588D+00 0.413D+00
 Coeff:     -0.696D-03 0.588D+00 0.413D+00
 Gap=     0.036 Goal=   None    Shift=    0.000
 RMSDP=1.74D-06 MaxDP=8.75D-05 DE= 1.29D-07 OVMax= 2.33D-04

 Cycle  16  Pass 1  IDiag  1:
 RMSU=  7.93D-07    CP:  1.00D+00  1.01D+00  4.33D-01
 E= -1553.88842845399     Delta-E=       -0.000000252514 Rises=F Damp=F
 DIIS: error= 5.99D-06 at cycle   4 NSaved=   4.
 NSaved= 4 IEnMin= 4 EnMin= -1553.88842845399     IErMin= 4 ErrMin= 5.99D-06
 ErrMax= 5.99D-06  0.00D+00 EMaxC= 1.00D-01 BMatC= 1.54D-08 BMatP= 1.45D-07
 IDIUse=1 WtCom= 1.00D+00 WtEn= 0.00D+00
 Coeff-Com: -0.829D-02 0.375D+00 0.286D+00 0.347D+00
 Coeff:     -0.829D-02 0.375D+00 0.286D+00 0.347D+00
 Gap=     0.036 Goal=   None    Shift=    0.000
 RMSDP=3.42D-07 MaxDP=2.09D-05 DE=-2.53D-07 OVMax= 4.53D-05

 Cycle  17  Pass 1  IDiag  1:
 RMSU=  3.15D-07    CP:  1.00D+00  1.02D+00  4.71D-01  9.00D-01
 E= -1553.88842846654     Delta-E=       -0.000000012549 Rises=F Damp=F
 DIIS: error= 1.92D-06 at cycle   5 NSaved=   5.
 NSaved= 5 IEnMin= 5 EnMin= -1553.88842846654     IErMin= 5 ErrMin= 1.92D-06
 ErrMax= 1.92D-06  0.00D+00 EMaxC= 1.00D-01 BMatC= 9.76D-10 BMatP= 1.54D-08
 IDIUse=1 WtCom= 1.00D+00 WtEn= 0.00D+00
 Coeff-Com: -0.547D-02 0.200D+00 0.157D+00 0.234D+00 0.414D+00
 Coeff:     -0.547D-02 0.200D+00 0.157D+00 0.234D+00 0.414D+00
 Gap=     0.036 Goal=   None    Shift=    0.000
 RMSDP=1.48D-07 MaxDP=7.00D-06 DE=-1.25D-08 OVMax= 2.93D-05

 Cycle  18  Pass 1  IDiag  1:
 RMSU=  1.11D-07    CP:  1.00D+00  1.02D+00  4.90D-01  1.00D+00  1.04D+00
 E= -1553.88842846742     Delta-E=       -0.000000000881 Rises=F Damp=F
 DIIS: error= 6.97D-07 at cycle   6 NSaved=   6.
 NSaved= 6 IEnMin= 6 EnMin= -1553.88842846742     IErMin= 6 ErrMin= 6.97D-07
 ErrMax= 6.97D-07  0.00D+00 EMaxC= 1.00D-01 BMatC= 1.75D-10 BMatP= 9.76D-10
 IDIUse=1 WtCom= 1.00D+00 WtEn= 0.00D+00
 Coeff-Com: -0.175D-02 0.500D-01 0.416D-01 0.827D-01 0.305D+00 0.523D+00
 Coeff:     -0.175D-02 0.500D-01 0.416D-01 0.827D-01 0.305D+00 0.523D+00
 Gap=     0.036 Goal=   None    Shift=    0.000
 RMSDP=1.22D-07 MaxDP=6.02D-06 DE=-8.81D-10 OVMax= 2.99D-05

 Cycle  19  Pass 1  IDiag  1:
 RMSU=  4.32D-08    CP:  1.00D+00  1.02D+00  4.98D-01  1.12D+00  1.25D+00
                    CP:  1.04D+00
 E= -1553.88842846771     Delta-E=       -0.000000000285 Rises=F Damp=F
 DIIS: error= 1.31D-07 at cycle   7 NSaved=   7.
 NSaved= 7 IEnMin= 7 EnMin= -1553.88842846771     IErMin= 7 ErrMin= 1.31D-07
 ErrMax= 1.31D-07  0.00D+00 EMaxC= 1.00D-01 BMatC= 2.23D-11 BMatP= 1.75D-10
 IDIUse=1 WtCom= 1.00D+00 WtEn= 0.00D+00
 Coeff-Com:  0.815D-04-0.123D-01-0.809D-02 0.531D-02 0.115D+00 0.326D+00
 Coeff-Com:  0.575D+00
 Coeff:      0.815D-04-0.123D-01-0.809D-02 0.531D-02 0.115D+00 0.326D+00
 Coeff:      0.575D+00
 Gap=     0.036 Goal=   None    Shift=    0.000
 RMSDP=8.31D-08 MaxDP=4.25D-06 DE=-2.85D-10 OVMax= 2.10D-05

 Cycle  20  Pass 1  IDiag  1:
 RMSU=  1.70D-08    CP:  1.00D+00  1.02D+00  5.05D-01  1.20D+00  1.38D+00
                    CP:  1.23D+00  1.11D+00
 E= -1553.88842846778     Delta-E=       -0.000000000070 Rises=F Damp=F
 DIIS: error= 4.90D-08 at cycle   8 NSaved=   8.
 NSaved= 8 IEnMin= 8 EnMin= -1553.88842846778     IErMin= 8 ErrMin= 4.90D-08
 ErrMax= 4.90D-08  0.00D+00 EMaxC= 1.00D-01 BMatC= 3.05D-12 BMatP= 2.23D-11
 IDIUse=1 WtCom= 1.00D+00 WtEn= 0.00D+00
 Coeff-Com:  0.387D-03-0.176D-01-0.133D-01-0.109D-01 0.167D-01 0.104D+00
 Coeff-Com:  0.309D+00 0.612D+00
 Coeff:      0.387D-03-0.176D-01-0.133D-01-0.109D-01 0.167D-01 0.104D+00
 Coeff:      0.309D+00 0.612D+00
 Gap=     0.036 Goal=   None    Shift=    0.000
 RMSDP=4.78D-08 MaxDP=2.46D-06 DE=-6.96D-11 OVMax= 1.22D-05

 Cycle  21  Pass 1  IDiag  1:
 RMSU=  6.72D-09    CP:  1.00D+00  1.02D+00  5.09D-01  1.24D+00  1.46D+00
                    CP:  1.33D+00  1.31D+00  1.15D+00
 E= -1553.88842846778     Delta-E=        0.000000000000 Rises=F Damp=F
 DIIS: error= 2.88D-08 at cycle   9 NSaved=   9.
 NSaved= 9 IEnMin= 8 EnMin= -1553.88842846778     IErMin= 9 ErrMin= 2.88D-08
 ErrMax= 2.88D-08  0.00D+00 EMaxC= 1.00D-01 BMatC= 5.41D-13 BMatP= 3.05D-12
 IDIUse=1 WtCom= 1.00D+00 WtEn= 0.00D+00
 Coeff-Com:  0.179D-03-0.593D-02-0.477D-02-0.547D-02-0.143D-01-0.192D-01
 Coeff-Com: -0.401D-02 0.280D+00 0.774D+00
 Coeff:      0.179D-03-0.593D-02-0.477D-02-0.547D-02-0.143D-01-0.192D-01
 Coeff:     -0.401D-02 0.280D+00 0.774D+00
 Gap=     0.036 Goal=   None    Shift=    0.000
 RMSDP=3.14D-08 MaxDP=1.62D-06 DE= 0.00D+00 OVMax= 8.02D-06

 Cycle  22  Pass 1  IDiag  1:
 RMSU=  2.78D-09    CP:  1.00D+00  1.02D+00  5.11D-01  1.27D+00  1.50D+00
                    CP:  1.39D+00  1.42D+00  1.40D+00  1.08D+00
 E= -1553.88842846780     Delta-E=       -0.000000000021 Rises=F Damp=F
 DIIS: error= 1.70D-08 at cycle  10 NSaved=  10.
 NSaved=10 IEnMin=10 EnMin= -1553.88842846780     IErMin=10 ErrMin= 1.70D-08
 ErrMax= 1.70D-08  0.00D+00 EMaxC= 1.00D-01 BMatC= 2.53D-13 BMatP= 5.41D-13
 IDIUse=1 WtCom= 1.00D+00 WtEn= 0.00D+00
 Coeff-Com:  0.182D-04 0.427D-03 0.165D-03-0.469D-03-0.102D-01-0.328D-01
 Coeff-Com: -0.791D-01 0.246D-01 0.515D+00 0.582D+00
 Coeff:      0.182D-04 0.427D-03 0.165D-03-0.469D-03-0.102D-01-0.328D-01
 Coeff:     -0.791D-01 0.246D-01 0.515D+00 0.582D+00
 Gap=     0.036 Goal=   None    Shift=    0.000
 RMSDP=1.21D-08 MaxDP=6.20D-07 DE=-2.14D-11 OVMax= 3.07D-06

 Cycle  23  Pass 1  IDiag  1:
 RMSU=  1.07D-09    CP:  1.00D+00  1.02D+00  5.12D-01  1.28D+00  1.52D+00
                    CP:  1.42D+00  1.48D+00  1.48D+00  1.22D+00  6.73D-01
 E= -1553.88842846780     Delta-E=       -0.000000000002 Rises=F Damp=F
 DIIS: error= 9.85D-09 at cycle  11 NSaved=  11.
 NSaved=11 IEnMin=11 EnMin= -1553.88842846780     IErMin=11 ErrMin= 9.85D-09
 ErrMax= 9.85D-09  0.00D+00 EMaxC= 1.00D-01 BMatC= 3.57D-14 BMatP= 2.53D-13
 IDIUse=1 WtCom= 1.00D+00 WtEn= 0.00D+00
 Coeff-Com:  0.646D-06 0.683D-03 0.443D-03 0.112D-04-0.502D-02-0.190D-01
 Coeff-Com: -0.494D-01-0.110D-01 0.247D+00 0.379D+00 0.457D+00
 Coeff:      0.646D-06 0.683D-03 0.443D-03 0.112D-04-0.502D-02-0.190D-01
 Coeff:     -0.494D-01-0.110D-01 0.247D+00 0.379D+00 0.457D+00
 Gap=     0.036 Goal=   None    Shift=    0.000
 RMSDP=2.32D-09 MaxDP=1.17D-07 DE=-2.27D-12 OVMax= 5.78D-07

 SCF Done:  E(RB3LYP) =  -1553.88842847     A.U. after   23 cycles
            NFock= 23  Conv=0.23D-08     -V/T= 2.0074
 KE= 1.542545570784D+03 PE=-8.020905903351D+03 EE= 2.739036677460D+03
 Leave Link  502 at Tue Jul 21 23:42:18 2015, MaxMem=    33554432 cpu:      1039.3
 (Enter /home/case/qchem/g09revD01/g09/l601.exe)
 Copying SCF densities to generalized density rwf, IOpCl= 0 IROHF=0.

 **********************************************************************

            Population analysis using the SCF density.

 **********************************************************************

 Orbital symmetries:
       Occupied  (A) (A) (A) (A) (A) (A) (A) (A) (A) (A) (A) (A)
                 (A) (A) (A) (A) (A) (A) (A) (A) (A) (A) (A) (A)
                 (A) (A) (A) (A) (A) (A) (A) (A) (A) (A) (A) (A)
                 (A) (A) (A) (A) (A) (A) (A) (A) (A) (A) (A) (A)
                 (A) (A) (A) (A) (A) (A) (A) (A) (A) (A) (A) (A)
                 (A) (A) (A) (A) (A) (A) (A) (A) (A) (A) (A) (A)
                 (A) (A) (A) (A) (A) (A) (A) (A) (A) (A) (A) (A)
                 (A) (A) (A) (A) (A)
       Virtual   (A) (A) (A) (A) (A) (A) (A) (A) (A) (A) (A) (A)
                 (A) (A) (A) (A) (A) (A) (A) (A) (A) (A) (A) (A)
                 (A) (A) (A) (A) (A) (A) (A) (A) (A) (A) (A) (A)
                 (A) (A) (A) (A) (A) (A) (A) (A) (A) (A) (A) (A)
                 (A) (A) (A) (A) (A) (A) (A) (A) (A) (A) (A) (A)
                 (A) (A) (A) (A) (A) (A) (A) (A) (A) (A) (A) (A)
                 (A) (A) (A) (A) (A) (A) (A) (A) (A) (A) (A) (A)
                 (A) (A) (A) (A) (A) (A) (A) (A) (A) (A) (A) (A)
                 (A) (A) (A) (A) (A) (A) (A) (A) (A) (A) (A) (A)
                 (A) (A) (A) (A) (A) (A) (A) (A) (A) (A) (A) (A)
                 (A) (A) (A) (A) (A) (A) (A) (A) (A) (A) (A) (A)
                 (A) (A) (A) (A) (A) (A) (A) (A) (A) (A) (A) (A)
                 (A) (A) (A) (A) (A) (A) (A) (A) (A) (A) (A) (A)
                 (A) (A) (A) (A) (A) (A) (A) (A) (A) (A) (A) (A)
                 (A) (A) (A) (A) (A) (A) (A) (A) (A) (A) (A) (A)
                 (A) (A) (A) (A) (A) (A) (A) (A) (A) (A) (A) (A)
                 (A) (A) (A) (A) (A) (A) (A) (A) (A) (A) (A) (A)
                 (A) (A) (A) (A) (A) (A) (A) (A) (A) (A) (A) (A)
                 (A) (A) (A) (A) (A) (A) (A) (A) (A) (A) (A) (A)
                 (A) (A) (A) (A) (A) (A) (A) (A) (A) (A) (A) (A)
                 (A) (A) (A) (A) (A) (A) (A) (A) (A) (A) (A) (A)
                 (A) (A) (A) (A) (A) (A) (A) (A) (A) (A) (A) (A)
                 (A) (A) (A) (A) (A) (A) (A) (A) (A) (A) (A) (A)
                 (A) (A) (A) (A) (A) (A)
 The electronic state is 1-A.
 Alpha  occ. eigenvalues --  -77.23867 -24.70032 -19.23343 -19.19658 -19.17184
 Alpha  occ. eigenvalues --  -19.16912 -19.16376 -19.10003 -14.39652 -14.39258
 Alpha  occ. eigenvalues --  -14.38865 -14.33527 -14.31446 -10.32753 -10.31525
 Alpha  occ. eigenvalues --  -10.29400 -10.29134 -10.28867 -10.28501 -10.27390
 Alpha  occ. eigenvalues --  -10.25593 -10.23974 -10.19629  -6.69564  -4.86027
 Alpha  occ. eigenvalues --   -4.85769  -4.85544  -1.19926  -1.11698  -1.08855
 Alpha  occ. eigenvalues --   -1.05549  -1.04662  -1.03017  -1.01643  -1.00183
 Alpha  occ. eigenvalues --   -0.98352  -0.92388  -0.90729  -0.88641  -0.81984
 Alpha  occ. eigenvalues --   -0.80120  -0.75982  -0.72823  -0.67697  -0.66632
 Alpha  occ. eigenvalues --   -0.65856  -0.64078  -0.60714  -0.60555  -0.59152
 Alpha  occ. eigenvalues --   -0.56213  -0.55359  -0.55061  -0.53949  -0.52747
 Alpha  occ. eigenvalues --   -0.52300  -0.50984  -0.50071  -0.49961  -0.49317
 Alpha  occ. eigenvalues --   -0.47583  -0.47009  -0.46224  -0.46019  -0.44654
 Alpha  occ. eigenvalues --   -0.42899  -0.42293  -0.42062  -0.41746  -0.40151
 Alpha  occ. eigenvalues --   -0.39936  -0.39096  -0.38568  -0.38081  -0.36405
 Alpha  occ. eigenvalues --   -0.36358  -0.35492  -0.33637  -0.32409  -0.32298
 Alpha  occ. eigenvalues --   -0.31176  -0.30588  -0.30210  -0.28862  -0.28168
 Alpha  occ. eigenvalues --   -0.26519  -0.26075  -0.24430  -0.20433
 Alpha virt. eigenvalues --   -0.16846  -0.00386   0.00192   0.00708   0.03833
 Alpha virt. eigenvalues --    0.04710   0.05657   0.06742   0.07278   0.08154
 Alpha virt. eigenvalues --    0.09041   0.09773   0.10270   0.10964   0.11633
 Alpha virt. eigenvalues --    0.12108   0.12359   0.13763   0.15390   0.16564
 Alpha virt. eigenvalues --    0.16855   0.17290   0.17343   0.18503   0.20647
 Alpha virt. eigenvalues --    0.21133   0.22363   0.22694   0.23975   0.24790
 Alpha virt. eigenvalues --    0.25735   0.26942   0.28006   0.28822   0.30192
 Alpha virt. eigenvalues --    0.32135   0.33396   0.34483   0.35981   0.37289
 Alpha virt. eigenvalues --    0.38611   0.39822   0.41141   0.44075   0.46838
 Alpha virt. eigenvalues --    0.47376   0.48979   0.49076   0.51644   0.52196
 Alpha virt. eigenvalues --    0.52633   0.52981   0.53794   0.54567   0.54882
 Alpha virt. eigenvalues --    0.56410   0.58062   0.58529   0.60068   0.60799
 Alpha virt. eigenvalues --    0.61275   0.62296   0.62954   0.63601   0.64080
 Alpha virt. eigenvalues --    0.65538   0.66504   0.67626   0.68413   0.69311
 Alpha virt. eigenvalues --    0.69736   0.70291   0.70495   0.71187   0.72191
 Alpha virt. eigenvalues --    0.75507   0.76726   0.77630   0.78486   0.78861
 Alpha virt. eigenvalues --    0.80271   0.80660   0.81116   0.81942   0.82797
 Alpha virt. eigenvalues --    0.83603   0.83690   0.84511   0.85125   0.85947
 Alpha virt. eigenvalues --    0.86471   0.86608   0.87319   0.87668   0.88353
 Alpha virt. eigenvalues --    0.89237   0.90717   0.91699   0.93050   0.93619
 Alpha virt. eigenvalues --    0.95210   0.96787   0.97055   0.98290   0.98500
 Alpha virt. eigenvalues --    0.99351   1.01110   1.02884   1.04112   1.04142
 Alpha virt. eigenvalues --    1.04927   1.05552   1.06049   1.06713   1.08887
 Alpha virt. eigenvalues --    1.09476   1.10230   1.11941   1.13446   1.14383
 Alpha virt. eigenvalues --    1.15828   1.18517   1.20259   1.21045   1.23618
 Alpha virt. eigenvalues --    1.25231   1.25512   1.26801   1.27769   1.30221
 Alpha virt. eigenvalues --    1.31696   1.32128   1.33926   1.34360   1.35079
 Alpha virt. eigenvalues --    1.36084   1.36414   1.37428   1.37726   1.39443
 Alpha virt. eigenvalues --    1.40340   1.40959   1.41369   1.43816   1.45559
 Alpha virt. eigenvalues --    1.48307   1.50443   1.50874   1.53515   1.54358
 Alpha virt. eigenvalues --    1.56470   1.57524   1.59653   1.60982   1.62095
 Alpha virt. eigenvalues --    1.63693   1.65620   1.68073   1.69041   1.70742
 Alpha virt. eigenvalues --    1.72536   1.72906   1.73287   1.75081   1.76882
 Alpha virt. eigenvalues --    1.77247   1.78252   1.78478   1.79475   1.79960
 Alpha virt. eigenvalues --    1.80337   1.80563   1.82169   1.82875   1.83398
 Alpha virt. eigenvalues --    1.83619   1.84342   1.86025   1.86499   1.88210
 Alpha virt. eigenvalues --    1.88715   1.90840   1.91125   1.91211   1.93821
 Alpha virt. eigenvalues --    1.94687   1.95024   1.97471   1.99468   2.00397
 Alpha virt. eigenvalues --    2.01290   2.02402   2.03420   2.04778   2.06586
 Alpha virt. eigenvalues --    2.07231   2.08854   2.09884   2.10830   2.12930
 Alpha virt. eigenvalues --    2.15093   2.16360   2.17109   2.17615   2.17988
 Alpha virt. eigenvalues --    2.21767   2.22963   2.24264   2.26230   2.26936
 Alpha virt. eigenvalues --    2.27826   2.29176   2.30388   2.31202   2.32970
 Alpha virt. eigenvalues --    2.35081   2.37314   2.37416   2.39057   2.40529
 Alpha virt. eigenvalues --    2.43271   2.43852   2.46413   2.47737   2.50092
 Alpha virt. eigenvalues --    2.50736   2.52953   2.53408   2.53839   2.57006
 Alpha virt. eigenvalues --    2.59517   2.60433   2.61158   2.63699   2.69125
 Alpha virt. eigenvalues --    2.69577   2.70801   2.71239   2.72911   2.73882
 Alpha virt. eigenvalues --    2.74386   2.76272   2.76355   2.78772   2.81529
 Alpha virt. eigenvalues --    2.83211   2.84041   2.86595   2.90054   2.92288
 Alpha virt. eigenvalues --    2.96669   2.99184   3.02463   3.02868   3.10403
 Alpha virt. eigenvalues --    3.12767   3.21932   3.33419   3.41807   3.47154
 Alpha virt. eigenvalues --    3.70176   3.71603   3.78672   3.81737   3.82695
 Alpha virt. eigenvalues --    3.95566   4.02429   4.08879   4.12699   4.16249
 Alpha virt. eigenvalues --    4.20588   4.26696   4.31220   4.35955   4.37489
 Alpha virt. eigenvalues --    4.44335   4.48922   4.54959   4.62893   4.65904
 Alpha virt. eigenvalues --    4.73078   4.84427
          Condensed to atoms (all electrons):
               1          2          3          4          5          6
     1  P   12.759626   0.489259   0.500968   0.237692  -0.000577  -0.005153
     2  O    0.489259   8.044754  -0.041852  -0.047652  -0.002837  -0.000247
     3  O    0.500968  -0.041852   7.990735  -0.029137   0.000231   0.000031
     4  O    0.237692  -0.047652  -0.029137   8.199022   0.201594  -0.032943
     5  C   -0.000577  -0.002837   0.000231   0.201594   4.932435   0.367524
     6  H   -0.005153  -0.000247   0.000031  -0.032943   0.367524   0.564862
     7  H   -0.001639   0.006140  -0.000044  -0.033623   0.350952  -0.041076
     8  C    0.000011  -0.000053  -0.000024  -0.042707   0.337470  -0.032839
     9  H    0.000182   0.000001   0.000000   0.002245  -0.043650  -0.001244
    10  O   -0.000316   0.000000   0.000000   0.001903  -0.044674  -0.001673
    11  C    0.000018   0.000000   0.000000   0.000202   0.003981  -0.000166
    12  H   -0.000002   0.000000   0.000000   0.000003  -0.000220  -0.000019
    13  N    0.000009   0.000000   0.000001  -0.000152   0.000286   0.000005
    14  C    0.000122   0.000001  -0.000180  -0.002487   0.000118   0.000058
    15  H    0.001351  -0.000007   0.000918   0.008896  -0.001143  -0.000125
    16  N    0.000010   0.000000  -0.000009   0.000040  -0.000005   0.000000
    17  C   -0.000001   0.000000   0.000000  -0.000003   0.000001   0.000000
    18  C    0.000000   0.000000   0.000000   0.000000   0.000000   0.000000
    19  O    0.000000   0.000000   0.000000   0.000000   0.000000   0.000000
    20  N    0.000000   0.000000   0.000000   0.000000   0.000000   0.000000
    21  H    0.000000   0.000000   0.000000   0.000000   0.000000   0.000000
    22  C    0.000000   0.000000   0.000000   0.000000   0.000000   0.000000
    23  N    0.000000   0.000000   0.000000   0.000000   0.000000   0.000000
    24  H    0.000000   0.000000   0.000000   0.000000   0.000000   0.000000
    25  H    0.000000   0.000000   0.000000   0.000000   0.000000   0.000000
    26  N    0.000000   0.000000   0.000000   0.000000   0.000000   0.000000
    27  C   -0.000002   0.000000   0.000000  -0.000001   0.000005   0.000000
    28  C    0.000320  -0.000030  -0.000004   0.001007  -0.030223   0.005893
    29  H    0.000411   0.000003  -0.000002   0.003017  -0.005692   0.000116
    30  C   -0.000073   0.000000   0.000000  -0.000311   0.006779  -0.000086
    31  H    0.000003   0.000000   0.000000  -0.000007  -0.000167   0.000004
    32  F    0.000000   0.000000   0.000000   0.000000   0.000148   0.000000
    33  O   -0.000069   0.000000   0.000000  -0.000133   0.002179  -0.000052
    34  H    0.000002   0.000000   0.000000  -0.000007  -0.000216   0.000005
               7          8          9         10         11         12
     1  P   -0.001639   0.000011   0.000182  -0.000316   0.000018  -0.000002
     2  O    0.006140  -0.000053   0.000001   0.000000   0.000000   0.000000
     3  O   -0.000044  -0.000024   0.000000   0.000000   0.000000   0.000000
     4  O   -0.033623  -0.042707   0.002245   0.001903   0.000202   0.000003
     5  C    0.350952   0.337470  -0.043650  -0.044674   0.003981  -0.000220
     6  H   -0.041076  -0.032839  -0.001244  -0.001673  -0.000166  -0.000019
     7  H    0.545410  -0.028547   0.003102   0.003004  -0.000155   0.000007
     8  C   -0.028547   4.966768   0.363323   0.202180  -0.060544   0.001385
     9  H    0.003102   0.363323   0.555151  -0.037748  -0.000832   0.000517
    10  O    0.003004   0.202180  -0.037748   8.299135   0.242143  -0.034613
    11  C   -0.000155  -0.060544  -0.000832   0.242143   4.887371   0.378956
    12  H    0.000007   0.001385   0.000517  -0.034613   0.378956   0.548984
    13  N   -0.000006   0.005374  -0.000304  -0.052573   0.136239  -0.058952
    14  C   -0.000007  -0.000697   0.000076   0.007320  -0.022659   0.002389
    15  H    0.000089  -0.001464   0.000061   0.006671  -0.001230   0.000035
    16  N    0.000000  -0.000022   0.000000   0.000334   0.003995  -0.000131
    17  C    0.000000   0.000026  -0.000001  -0.000277   0.009207  -0.000388
    18  C    0.000000   0.000000   0.000000   0.000000   0.000048   0.000005
    19  O    0.000000   0.000000   0.000000   0.000000   0.000000   0.000000
    20  N    0.000000   0.000000   0.000000   0.000000   0.000016   0.000006
    21  H    0.000000   0.000000   0.000000   0.000000   0.000000   0.000000
    22  C    0.000000   0.000000   0.000000   0.000000  -0.000249   0.000089
    23  N    0.000000   0.000000   0.000000   0.000000  -0.000006  -0.000012
    24  H    0.000000   0.000000   0.000000   0.000000   0.000000   0.000000
    25  H    0.000000   0.000000   0.000000   0.000000   0.000000   0.000012
    26  N    0.000000  -0.000006   0.000000   0.000054  -0.001853   0.006515
    27  C    0.000000  -0.000061   0.000010   0.001928  -0.036177  -0.001041
    28  C   -0.006323   0.271044  -0.034994  -0.035395  -0.043460   0.005798
    29  H    0.000255  -0.024650   0.003717   0.001457   0.003798  -0.000102
    30  C    0.000052  -0.061650  -0.007551  -0.036780   0.286644  -0.043020
    31  H   -0.000007   0.011497   0.000189   0.002371  -0.032486   0.000632
    32  F   -0.000002   0.006954   0.004389  -0.000310  -0.015550   0.001616
    33  O    0.002786  -0.038024   0.002806   0.001178   0.003347  -0.000061
    34  H   -0.000091   0.006148  -0.000061  -0.000097  -0.000009  -0.000002
              13         14         15         16         17         18
     1  P    0.000009   0.000122   0.001351   0.000010  -0.000001   0.000000
     2  O    0.000000   0.000001  -0.000007   0.000000   0.000000   0.000000
     3  O    0.000001  -0.000180   0.000918  -0.000009   0.000000   0.000000
     4  O   -0.000152  -0.002487   0.008896   0.000040  -0.000003   0.000000
     5  C    0.000286   0.000118  -0.001143  -0.000005   0.000001   0.000000
     6  H    0.000005   0.000058  -0.000125   0.000000   0.000000   0.000000
     7  H   -0.000006  -0.000007   0.000089   0.000000   0.000000   0.000000
     8  C    0.005374  -0.000697  -0.001464  -0.000022   0.000026   0.000000
     9  H   -0.000304   0.000076   0.000061   0.000000  -0.000001   0.000000
    10  O   -0.052573   0.007320   0.006671   0.000334  -0.000277   0.000000
    11  C    0.136239  -0.022659  -0.001230   0.003995   0.009207   0.000048
    12  H   -0.058952   0.002389   0.000035  -0.000131  -0.000388   0.000005
    13  N    7.173071   0.330509  -0.056248  -0.061433  -0.070507   0.004456
    14  C    0.330509   4.770758   0.374422   0.507777  -0.095094   0.006765
    15  H   -0.056248   0.374422   0.511165  -0.036494   0.004552  -0.000191
    16  N   -0.061433   0.507777  -0.036494   6.820966   0.384380  -0.062020
    17  C   -0.070507  -0.095094   0.004552   0.384380   5.230363   0.279352
    18  C    0.004456   0.006765  -0.000191  -0.062020   0.279352   4.460649
    19  O   -0.000046   0.000151   0.000000  -0.001320  -0.087443   0.625070
    20  N    0.000372  -0.000155   0.000003   0.003106  -0.104851   0.201962
    21  H    0.000022   0.000004   0.000000  -0.000050   0.010060  -0.004626
    22  C   -0.000307   0.000152   0.000003   0.000623  -0.011928  -0.026646
    23  N   -0.000125   0.000001   0.000000   0.000003   0.001204   0.000301
    24  H    0.000001   0.000000   0.000000   0.000000  -0.000051   0.000069
    25  H   -0.000019   0.000000   0.000000  -0.000001   0.000066   0.000048
    26  N   -0.069953   0.003616  -0.000076   0.007337  -0.055009  -0.021643
    27  C    0.287922  -0.087747   0.004802  -0.085133   0.378524  -0.044317
    28  C    0.000554   0.001647   0.000087   0.000002  -0.000085   0.000000
    29  H    0.000097   0.000481   0.000042   0.000007  -0.000030   0.000000
    30  C   -0.032030  -0.000702   0.000046  -0.000045  -0.000139   0.000005
    31  H    0.000358   0.000092  -0.000013  -0.000017  -0.000036   0.000004
    32  F    0.001646  -0.000005   0.000000   0.000000  -0.000001   0.000000
    33  O   -0.000012  -0.000001   0.000001   0.000000   0.000000   0.000000
    34  H   -0.000005   0.000000   0.000000   0.000000   0.000000   0.000000
              19         20         21         22         23         24
     1  P    0.000000   0.000000   0.000000   0.000000   0.000000   0.000000
     2  O    0.000000   0.000000   0.000000   0.000000   0.000000   0.000000
     3  O    0.000000   0.000000   0.000000   0.000000   0.000000   0.000000
     4  O    0.000000   0.000000   0.000000   0.000000   0.000000   0.000000
     5  C    0.000000   0.000000   0.000000   0.000000   0.000000   0.000000
     6  H    0.000000   0.000000   0.000000   0.000000   0.000000   0.000000
     7  H    0.000000   0.000000   0.000000   0.000000   0.000000   0.000000
     8  C    0.000000   0.000000   0.000000   0.000000   0.000000   0.000000
     9  H    0.000000   0.000000   0.000000   0.000000   0.000000   0.000000
    10  O    0.000000   0.000000   0.000000   0.000000   0.000000   0.000000
[...]
    15  H    0.000726  -0.000002   0.005730   0.000057  -0.000032  -0.000001
    16  N    0.000031   0.000000  -0.000483   0.000000   0.000000   0.000000
    17  C   -0.000170   0.000001  -0.000015   0.000000   0.000000   0.000000
    18  C   -0.000001   0.000000   0.000000   0.000000   0.000000   0.000000
    19  O    0.000000   0.000000   0.000000   0.000000   0.000000   0.000000
    20  N    0.000000   0.000000   0.000000   0.000000   0.000000   0.000000
    21  H    0.000000   0.000000   0.000000   0.000000   0.000000   0.000000
    22  C    0.000000   0.000000   0.000000   0.000000   0.000000   0.000000
    23  N    0.000000   0.000000   0.000000   0.000000   0.000000   0.000000
    24  H    0.000000   0.000000   0.000000   0.000000   0.000000   0.000000
    25  H    0.000000   0.000000   0.000000   0.000000   0.000000   0.000000
    26  N   -0.000010   0.000000   0.000000   0.000000   0.000000   0.000000
    27  C    0.000085  -0.000002   0.000078   0.000000   0.000000   0.000000
    28  C    0.001178   0.000020  -0.000029  -0.004372  -0.021001   0.004700
    29  H    0.001015  -0.000003  -0.000141   0.009189  -0.010953   0.000272
    30  C   -0.000104  -0.000006   0.000021  -0.000340   0.005565  -0.000131
    31  H   -0.000019   0.000000   0.000001  -0.000003  -0.000110   0.000003
    32  F   -0.000009   0.000000   0.000000   0.000000   0.000073   0.000000
    33  O   -0.000031   0.000000   0.000000   0.000057  -0.001041  -0.000056
    34  H    0.000005   0.000000   0.000000  -0.000002  -0.000133   0.000008
               7          8          9         10         11         12
     1  P    0.001463  -0.010827   0.000847   0.048314  -0.002159   0.000331
     2  O    0.000165  -0.002106  -0.000099  -0.004296   0.000238  -0.000008
     3  O   -0.000040   0.000152  -0.000006  -0.002630  -0.000196  -0.000002
     4  O   -0.029326  -0.041958   0.002948  -0.005731   0.000526  -0.000007
     5  C    0.368992   0.325386  -0.042740  -0.043962   0.005177  -0.000300
     6  H   -0.030477  -0.034568  -0.002535  -0.001664  -0.000160  -0.000010
     7  H    0.529199  -0.039061   0.003247   0.002730  -0.000071   0.000007
     8  C   -0.039061   4.997402   0.359011   0.201547  -0.059589   0.000548
     9  H    0.003247   0.359011   0.581280  -0.031735   0.000588   0.002270
    10  O    0.002730   0.201547  -0.031735   8.338570   0.188371  -0.033457
    11  C   -0.000071  -0.059589   0.000588   0.188371   4.964857   0.365317
    12  H    0.000007   0.000548   0.002270  -0.033457   0.365317   0.519560
    13  N    0.000001   0.005102  -0.000194  -0.050904   0.206315  -0.043750
    14  C    0.000001  -0.000146   0.000030   0.004053  -0.027738   0.003400
    15  H   -0.000002  -0.000063   0.000004   0.000068   0.000759  -0.000129
    16  N    0.000000  -0.000003   0.000000   0.000069   0.003783  -0.000318
    17  C    0.000000   0.000009  -0.000001  -0.000192   0.011552   0.000604
    18  C    0.000000   0.000000   0.000000   0.000000   0.000063   0.000008
    19  O    0.000000   0.000000   0.000000   0.000000   0.000000   0.000000
    20  N    0.000000   0.000000   0.000000   0.000000   0.000008   0.000046
    21  H    0.000000   0.000000   0.000000   0.000000   0.000000  -0.000001
    22  C    0.000000   0.000000   0.000000  -0.000002   0.000232   0.000082
    23  N    0.000000   0.000000   0.000000   0.000000   0.000001  -0.000060
    24  H    0.000000   0.000000   0.000000   0.000000   0.000000   0.000001
    25  H    0.000000   0.000000   0.000000   0.000000  -0.000008   0.000076
    26  N    0.000000   0.000009   0.000000   0.000045  -0.004193   0.017622
    27  C    0.000000  -0.000080   0.000004   0.002413  -0.037383  -0.004495
    28  C   -0.008741   0.292185  -0.054293  -0.043487  -0.041991   0.002664
    29  H    0.000221  -0.045382   0.006583   0.000809   0.006752  -0.000153
    30  C    0.000331  -0.045131  -0.011601  -0.040650   0.254450  -0.047370
    31  H   -0.000006   0.007931   0.000232   0.002861  -0.054163   0.003064
    32  F   -0.000002   0.001666   0.005221   0.000475  -0.023230   0.004813
    33  O    0.005878  -0.041687   0.005410   0.001458   0.003142  -0.000037
    34  H   -0.000260   0.006364  -0.000200  -0.000125  -0.000112  -0.000002
              13         14         15         16         17         18
     1  P    0.000987   0.002370   0.000726   0.000031  -0.000170  -0.000001
     2  O   -0.000009  -0.000057  -0.000002   0.000000   0.000001   0.000000
     3  O   -0.000787   0.000578   0.005730  -0.000483  -0.000015   0.000000
     4  O   -0.000008  -0.000076   0.000057   0.000000   0.000000   0.000000
     5  C    0.000024  -0.000049  -0.000032   0.000000   0.000000   0.000000
     6  H    0.000003  -0.000001  -0.000001   0.000000   0.000000   0.000000
     7  H    0.000001   0.000001  -0.000002   0.000000   0.000000   0.000000
     8  C    0.005102  -0.000146  -0.000063  -0.000003   0.000009   0.000000
     9  H   -0.000194   0.000030   0.000004   0.000000  -0.000001   0.000000
    10  O   -0.050904   0.004053   0.000068   0.000069  -0.000192   0.000000
    11  C    0.206315  -0.027738   0.000759   0.003783   0.011552   0.000063
    12  H   -0.043750   0.003400  -0.000129  -0.000318   0.000604   0.000008
    13  N    7.090401   0.312901  -0.057341  -0.061453  -0.064145   0.004110
    14  C    0.312901   4.757515   0.375022   0.533420  -0.102042   0.006260
    15  H   -0.057341   0.375022   0.516262  -0.032958   0.004477  -0.000169
    16  N   -0.061453   0.533420  -0.032958   6.777276   0.378804  -0.059083
    17  C   -0.064145  -0.102042   0.004477   0.378804   5.192385   0.304872
    18  C    0.004110   0.006260  -0.000169  -0.059083   0.304872   4.426594
    19  O   -0.000042   0.000090   0.000000  -0.000861  -0.079506   0.629012
    20  N    0.000497  -0.000221   0.000003   0.002973  -0.098756   0.194098
    21  H    0.000019   0.000005   0.000000  -0.000055   0.009114  -0.004537
    22  C    0.000562   0.000195   0.000003   0.000666  -0.015899  -0.021562
    23  N   -0.000121   0.000002   0.000000   0.000003   0.000662   0.000236
    24  H    0.000001   0.000000   0.000000   0.000000  -0.000022   0.000016
    25  H   -0.000022   0.000000   0.000000   0.000000   0.000071   0.000020
    26  N   -0.071064   0.003551  -0.000048   0.007116  -0.056682  -0.018964
    27  C    0.276898  -0.082714   0.004598  -0.075892   0.390859  -0.046976
    28  C   -0.001085   0.000590   0.000051   0.000012   0.000012   0.000000
    29  H   -0.000084   0.000307   0.002197   0.000023  -0.000008   0.000000
    30  C   -0.019390  -0.006218   0.000455  -0.000012  -0.000370   0.000001
    31  H    0.002616   0.003574   0.000268  -0.000042  -0.000238  -0.000001
    32  F    0.001705   0.000015   0.000003   0.000000   0.000000   0.000000
    33  O   -0.000021   0.000003   0.000000   0.000000   0.000000   0.000000
    34  H   -0.000002  -0.000001  -0.000003   0.000000   0.000000   0.000000
              19         20         21         22         23         24
     1  P    0.000000   0.000000   0.000000   0.000000   0.000000   0.000000
     2  O    0.000000   0.000000   0.000000   0.000000   0.000000   0.000000
     3  O    0.000000   0.000000   0.000000   0.000000   0.000000   0.000000
     4  O    0.000000   0.000000   0.000000   0.000000   0.000000   0.000000
     5  C    0.000000   0.000000   0.000000   0.000000   0.000000   0.000000
     6  H    0.000000   0.000000   0.000000   0.000000   0.000000   0.000000
     7  H    0.000000   0.000000   0.000000   0.000000   0.000000   0.000000
     8  C    0.000000   0.000000   0.000000   0.000000   0.000000   0.000000
     9  H    0.000000   0.000000   0.000000   0.000000   0.000000   0.000000
    10  O    0.000000   0.000000   0.000000  -0.000002   0.000000   0.000000
    11  C    0.000000   0.000008   0.000000   0.000232   0.000001   0.000000
    12  H    0.000000   0.000046  -0.000001   0.000082  -0.000060   0.000001
    13  N   -0.000042   0.000497   0.000019   0.000562  -0.000121   0.000001
    14  C    0.000090  -0.000221   0.000005   0.000195   0.000002   0.000000
    15  H    0.000000   0.000003   0.000000   0.000003   0.000000   0.000000
    16  N   -0.000861   0.002973  -0.000055   0.000666   0.000003   0.000000
    17  C   -0.079506  -0.098756   0.009114  -0.015899   0.000662  -0.000022
    18  C    0.629012   0.194098  -0.004537  -0.021562   0.000236   0.000016
    19  O    8.028321  -0.097713   0.010362   0.002727  -0.000047  -0.000003
    20  N   -0.097713   7.299300   0.269783   0.295963  -0.088305  -0.002412
    21  H    0.010362   0.269783   0.390090  -0.018947  -0.002864   0.001741
    22  C    0.002727   0.295963  -0.018947   4.235418   0.339696  -0.018446
    23  N   -0.000047  -0.088305  -0.002864   0.339696   6.997467   0.307415
    24  H   -0.000003  -0.002412   0.001741  -0.018446   0.307415   0.393212
    25  H    0.000001   0.005294  -0.000082  -0.014092   0.304276  -0.022788
    26  N    0.000044  -0.068120   0.003882   0.551584  -0.086446   0.003814
    27  C    0.003877  -0.011967  -0.000103  -0.059855  -0.000202  -0.000054
    28  C    0.000000   0.000000   0.000000   0.000000   0.000000   0.000000
    29  H    0.000000   0.000000   0.000000   0.000000   0.000000   0.000000
    30  C    0.000000   0.000000   0.000000  -0.000011   0.000000   0.000000
    31  H    0.000000   0.000000   0.000000   0.000002   0.000000   0.000000
    32  F    0.000000   0.000000   0.000000   0.000000   0.000000   0.000000
    33  O    0.000000   0.000000   0.000000   0.000000   0.000000   0.000000
    34  H    0.000000   0.000000   0.000000   0.000000   0.000000   0.000000
              25         26         27         28         29         30
     1  P    0.000000  -0.000010   0.000085   0.001178   0.001015  -0.000104
     2  O    0.000000   0.000000  -0.000002   0.000020  -0.000003  -0.000006
     3  O    0.000000   0.000000   0.000078  -0.000029  -0.000141   0.000021
     4  O    0.000000   0.000000   0.000000  -0.004372   0.009189  -0.000340
     5  C    0.000000   0.000000   0.000000  -0.021001  -0.010953   0.005565
     6  H    0.000000   0.000000   0.000000   0.004700   0.000272  -0.000131
     7  H    0.000000   0.000000   0.000000  -0.008741   0.000221   0.000331
     8  C    0.000000   0.000009  -0.000080   0.292185  -0.045382  -0.045131
     9  H    0.000000   0.000000   0.000004  -0.054293   0.006583  -0.011601
    10  O    0.000000   0.000045   0.002413  -0.043487   0.000809  -0.040650
    11  C   -0.000008  -0.004193  -0.037383  -0.041991   0.006752   0.254450
    12  H    0.000076   0.017622  -0.004495   0.002664  -0.000153  -0.047370
    13  N   -0.000022  -0.071064   0.276898  -0.001085  -0.000084  -0.019390
    14  C    0.000000   0.003551  -0.082714   0.000590   0.000307  -0.006218
    15  H    0.000000  -0.000048   0.004598   0.000051   0.002197   0.000455
    16  N    0.000000   0.007116  -0.075892   0.000012   0.000023  -0.000012
    17  C    0.000071  -0.056682   0.390859   0.000012  -0.000008  -0.000370
    18  C    0.000020  -0.018964  -0.046976   0.000000   0.000000   0.000001
    19  O    0.000001   0.000044   0.003877   0.000000   0.000000   0.000000
    20  N    0.005294  -0.068120  -0.011967   0.000000   0.000000   0.000000
    21  H   -0.000082   0.003882  -0.000103   0.000000   0.000000   0.000000
    22  C   -0.014092   0.551584  -0.059855   0.000000   0.000000  -0.000011
    23  N    0.304276  -0.086446  -0.000202   0.000000   0.000000   0.000000
    24  H   -0.022788   0.003814  -0.000054   0.000000   0.000000   0.000000
    25  H    0.367438   0.004971   0.000420   0.000000   0.000000   0.000000
    26  N    0.004971   6.951305   0.354694  -0.000014   0.000000   0.000334
    27  C    0.000420   0.354694   4.753426  -0.000173   0.000043   0.003564
    28  C    0.000000  -0.000014  -0.000173   5.025635   0.351003   0.276393
    29  H    0.000000   0.000000   0.000043   0.351003   0.614805  -0.056531
    30  C    0.000000   0.000334   0.003564   0.276393  -0.056531   5.000276
    31  H    0.000000   0.000032   0.000677  -0.047219  -0.002014   0.366706
    32  F    0.000000  -0.000011   0.000015  -0.034127   0.002281   0.224330
    33  O    0.000000   0.000000   0.000000   0.229906  -0.033768  -0.039577
    34  H    0.000000   0.000000   0.000000  -0.020053  -0.004074  -0.002662
              31         32         33         34
     1  P   -0.000019  -0.000009  -0.000031   0.000005
     2  O    0.000000   0.000000   0.000000   0.000000
     3  O    0.000001   0.000000   0.000000   0.000000
     4  O   -0.000003   0.000000   0.000057  -0.000002
     5  C   -0.000110   0.000073  -0.001041  -0.000133
     6  H    0.000003   0.000000  -0.000056   0.000008
     7  H   -0.000006  -0.000002   0.005878  -0.000260
     8  C    0.007931   0.001666  -0.041687   0.006364
     9  H    0.000232   0.005221   0.005410  -0.000200
    10  O    0.002861   0.000475   0.001458  -0.000125
    11  C   -0.054163  -0.023230   0.003142  -0.000112
    12  H    0.003064   0.004813  -0.000037  -0.000002
    13  N    0.002616   0.001705  -0.000021  -0.000002
    14  C    0.003574   0.000015   0.000003  -0.000001
    15  H    0.000268   0.000003   0.000000  -0.000003
    16  N   -0.000042   0.000000   0.000000   0.000000
    17  C   -0.000238   0.000000   0.000000   0.000000
    18  C   -0.000001   0.000000   0.000000   0.000000
    19  O    0.000000   0.000000   0.000000   0.000000
    20  N    0.000000   0.000000   0.000000   0.000000
    21  H    0.000000   0.000000   0.000000   0.000000
    22  C    0.000002   0.000000   0.000000   0.000000
    23  N    0.000000   0.000000   0.000000   0.000000
    24  H    0.000000   0.000000   0.000000   0.000000
    25  H    0.000000   0.000000   0.000000   0.000000
    26  N    0.000032  -0.000011   0.000000   0.000000
    27  C    0.000677   0.000015   0.000000   0.000000
    28  C   -0.047219  -0.034127   0.229906  -0.020053
    29  H   -0.002014   0.002281  -0.033768  -0.004074
    30  C    0.366706   0.224330  -0.039577  -0.002662
    31  H    0.581933  -0.030217   0.000234   0.001077
    32  F   -0.030217   9.159189   0.000563   0.000667
    33  O    0.000234   0.000563   8.252745   0.235849
    34  H    0.001077   0.000667   0.235849   0.373208
 Mulliken charges:
               1
     1  P    1.122544
     2  O   -0.504255
     3  O   -0.481118
     4  O   -0.503870
     5  C   -0.097139
     6  H    0.202224
     7  H    0.195751
     8  C    0.123287
     9  H    0.175731
    10  O   -0.532950
    11  C    0.238861
    12  H    0.209688
    13  N   -0.531721
    14  C    0.215381
    15  H    0.180064
    16  N   -0.473016
    17  C    0.124621
    18  C    0.586003
    19  O   -0.496263
    20  N   -0.700471
    21  H    0.341592
    22  C    0.721682
    23  N   -0.771712
    24  H    0.337525
    25  H    0.354425
    26  N   -0.593451
    27  C    0.528244
    28  C    0.092234
    29  H    0.157609
    30  C    0.137678
    31  H    0.162820
    32  F   -0.313420
    33  O   -0.619028
    34  H    0.410450
 Sum of Mulliken charges =   0.00000
 Mulliken charges with hydrogens summed into heavy atoms:
               1
     1  P    1.122544
     2  O   -0.504255
     3  O   -0.481118
     4  O   -0.503870
     5  C    0.300836
     8  C    0.299019
    10  O   -0.532950
    11  C    0.448549
    13  N   -0.531721
    14  C    0.395446
    16  N   -0.473016
    17  C    0.124621
    18  C    0.586003
    19  O   -0.496263
    20  N   -0.358879
    22  C    0.721682
    23  N   -0.079763
    26  N   -0.593451
    27  C    0.528244
    28  C    0.249843
    30  C    0.300498
    32  F   -0.313420
    33  O   -0.208578
 Electronic spatial extent (au):  <R**2>=           7897.4104
 Charge=              0.0000 electrons
 Dipole moment (field-independent basis, Debye):
    X=              1.7117    Y=              6.8583    Z=             -3.1656  Tot=              7.7452
 Quadrupole moment (field-independent basis, Debye-Ang):
   XX=           -113.6634   YY=           -152.7218   ZZ=           -131.1817
   XY=             -6.2442   XZ=             31.4343   YZ=              7.1275
 Traceless Quadrupole moment (field-independent basis, Debye-Ang):
   XX=             18.8589   YY=            -20.1995   ZZ=              1.3406
   XY=             -6.2442   XZ=             31.4343   YZ=              7.1275
 Octapole moment (field-independent basis, Debye-Ang**2):
  XXX=             -5.9412  YYY=             22.3915  ZZZ=            -24.3317  XYY=             23.3364
  XXY=             56.8572  XXZ=           -127.3366  XZZ=              7.6470  YZZ=             63.4401
  YYZ=              2.8353  XYZ=             -4.1136
 Hexadecapole moment (field-independent basis, Debye-Ang**3):
 XXXX=          -5846.6743 YYYY=          -2220.4994 ZZZZ=          -1013.3513 XXXY=           -224.8495
 XXXZ=            631.9874 YYYX=              4.7471 YYYZ=             66.0749 ZZZX=            266.4229
 ZZZY=             -2.2909 XXYY=          -1562.7460 XXZZ=          -1116.0577 YYZZ=           -519.9088
 XXYZ=            104.9688 YYXZ=            101.1732 ZZXY=              4.7355
 N-N= 2.256702012867D+03 E-N=-8.162774974727D+03  KE= 1.542231472284D+03
 No NMR shielding tensors so no spin-rotation constants.
 Leave Link  601 at Wed Jul 22 12:30:13 2015, MaxMem=    33554432 cpu:         0.7
 (Enter /home/case/qchem/g09revD01/g09/l9999.exe)
 1\1\GINC-CASEGROUP\FOpt\RB3LYP\6-31G(d)\C10H11F1N5O6P1\HAICHIT\22-Jul-
 2015\0\\#P b3lyp/6-31G* Opt\\AF2 geo opt\\0,1\P,3.8586986009,-7.362943
 4221,1.9664943931\O,4.3959036492,-7.9430931962,0.7235434814\O,2.735655
 5034,-6.4547655843,2.2495456325\O,4.473666126,-7.9777911682,3.32270544
 13\C,5.8854020721,-8.2824438946,3.314627966\H,6.1344854334,-8.86364402
 4,2.4234306693\H,6.0842305282,-8.8678277228,4.2143061667\C,6.657606881
 4,-6.9731872254,3.3579495288\H,7.7238859511,-7.1643393009,3.1746606703
 \O,6.110882458,-6.1085297263,2.3507877058\C,6.4854920111,-4.7439743227
 ,2.6576177685\H,7.3421528016,-4.4576371209,2.0414679868\N,5.4242588186
 ,-3.8402512059,2.3253728346\C,4.1724444217,-3.6718349079,2.9243653007\
 H,3.8123090334,-4.3510594093,3.6843227166\N,3.4982780438,-2.6750143294
 ,2.4248499907\C,4.3199441725,-2.143631023,1.4481840086\C,4.1200607515,
 -1.014774034,0.5741275045\O,3.1931356425,-0.234414786,0.4658560698\N,5
 .2773932075,-0.8565995558,-0.2715335746\H,5.2264861188,-0.0398499488,-
 0.8704702335\C,6.4092674214,-1.6282263999,-0.2598300634\N,7.4271381646
 ,-1.2629859215,-1.1108751489\H,7.1672506657,-0.8556316613,-2.000078969
 7\H,8.1533621558,-1.9647724655,-1.180559622\N,6.577968143,-2.649840238
 1,0.5488464508\C,5.5153924974,-2.8479303726,1.3662902953\C,6.518355522
 9,-6.1508667181,4.6426817082\H,5.4574470264,-6.1303123295,4.934503559\
 C,6.9276130047,-4.7533129664,4.1439121382\H,6.5113272264,-3.9180996576
 ,4.7145361573\F,8.3121267767,-4.6535547077,4.1832484458\O,7.3364931053
 ,-6.709075242,5.6398724919\H,7.2038860632,-6.2247854111,6.4692405294\\
 Version=AS64L-G09RevD.01\State=1-A\HF=-1554.0061477\RMSD=5.832e-09\RMS
 F=2.703e-06\Dipole=3.0015568,-0.3367095,0.4032225\Quadrupole=-17.58137
 49,-3.0713761,20.652751,10.3453107,-8.731378,-15.8612619\PG=C01 [X(C10
 H11F1N5O6P1)]\\@


 THE VALUE OF PHILOSOPHY IS, IN FACT, TO BE SOUGHT LARGELY IN ITS
 VERY UNCERTAINTY.  THE MAN WHO HAS NO TINCTURE OF PHILOSOPHY GOES
 THROUGH LIFE IMPRISONED IN THE PREJUDICES DERIVED FROM COMMON SENSE,
 FROM THE HABITUAL BELIEFS OF HIS AGE OR HIS NATION, AND FROM
 CONVICTIONS WHICH HAVE GROWN UP IN HIS MIND WITHOUT THE CO-OPERATION
 OR CONSENT OF HIS DELIBERATE REASON.  TO SUCH A MAN THE WORLD TENDS
 TO BE DEFINITE, FINITE, OBVIOUS; COMMON OBJECTS ROUSE NO QUESTIONS,
 AND UNFAMILIAR POSSIBILITIES ARE CONTEMPTUOUSLY REJECTED.

                             -- BERTRAND RUSSELL
 Job cpu time:       0 days 13 hours  5 minutes 10.2 seconds.
 File lengths (MBytes):  RWF=     87 Int=      0 D2E=      0 Chk=     11 Scr=      1
 Normal termination of Gaussian 09 at Wed Jul 22 12:30:14 2015.
